<?xml version="1.0" encoding="ISO-8859-1"?>
<modeling>
 <generator>
  <i name="program" type="string">vasp </i>
  <i name="version" type="string">6.2.0  </i>
  <i name="subversion" type="string">18Jan21 (build Mar 17 2021 09:06:54) complex                          serial </i>
  <i name="platform" type="string">LinuxIFC </i>
  <i name="date" type="string">2021 09 09 </i>
  <i name="time" type="string">12:05:04 </i>
 </generator>
 <incar>
  <i type="string" name="PREC">normal</i>
  <i type="int" name="ICHARG">     1</i>
  <i type="int" name="IBRION">     1</i>
  <i name="EDIFF">      0.00000100</i>
  <i type="int" name="NSW">     0</i>
  <i type="int" name="ISIF">     2</i>
  <i name="ENCUT">    280.00000000</i>
  <i type="int" name="NBANDS">    40</i>
  <i type="int" name="ISMEAR">     1</i>
  <i name="SIGMA">      0.20000000</i>
  <i type="logical" name="LCHARG"> T  </i>
  <i type="int" name="KPAR">     1</i>
  <i type="int" name="NCORE">     1</i>
  <i type="string" name="GGA">PE</i>
 </incar>
 <primitive_cell>
  <structure name="primitive_cell" >
   <crystal>
    <varray name="basis" >
     <v>       2.33000000       0.00000000       0.00000000 </v>
     <v>      -1.16500000       2.01783919       0.00000000 </v>
     <v>       0.00000000       0.00000000       4.26400000 </v>
    </varray>
    <i name="volume">     20.04747450 </i>
    <varray name="rec_basis" >
     <v>       0.42918455       0.24778982       0.00000000 </v>
     <v>       0.00000000       0.49557963       0.00000000 </v>
     <v>       0.00000000       0.00000000       0.23452158 </v>
    </varray>
   </crystal>
   <varray name="positions" >
    <v>       0.00000000       0.00000000       0.00000000 </v>
    <v>       0.33333333       0.66666667       0.50000000 </v>
   </varray>
  </structure>
  <varray name="primitive_index" >
   <v type="int" >        1 </v>
   <v type="int" >        2 </v>
  </varray>
 </primitive_cell>
 <kpoints>
  <generation param="Monkhorst-Pack">
   <v type="int" name="divisions">      11       11       11 </v>
   <v name="usershift">      0.00000000       0.00000000       0.00000000 </v>
   <v name="genvec1">      0.09090909       0.00000000       0.00000000 </v>
   <v name="genvec2">      0.00000000       0.09090909       0.00000000 </v>
   <v name="genvec3">      0.00000000       0.00000000       0.09090909 </v>
   <v name="shift">      0.00000000       0.00000000       0.00000000 </v>
  </generation>
  <varray name="kpointlist" >
   <v>       0.00000000       0.00000000       0.00000000 </v>
   <v>       0.09090909       0.00000000       0.00000000 </v>
   <v>       0.18181818       0.00000000       0.00000000 </v>
   <v>       0.27272727      -0.00000000       0.00000000 </v>
   <v>       0.36363636       0.00000000       0.00000000 </v>
   <v>       0.45454545      -0.00000000       0.00000000 </v>
   <v>       0.09090909       0.09090909       0.00000000 </v>
   <v>       0.18181818       0.09090909       0.00000000 </v>
   <v>       0.27272727       0.09090909       0.00000000 </v>
   <v>       0.36363636       0.09090909       0.00000000 </v>
   <v>       0.45454545       0.09090909       0.00000000 </v>
   <v>       0.18181818       0.18181818       0.00000000 </v>
   <v>       0.27272727       0.18181818       0.00000000 </v>
   <v>       0.36363636       0.18181818       0.00000000 </v>
   <v>       0.27272727       0.27272727       0.00000000 </v>
   <v>       0.36363636       0.27272727       0.00000000 </v>
   <v>       0.00000000       0.00000000       0.09090909 </v>
   <v>       0.09090909       0.00000000       0.09090909 </v>
   <v>       0.18181818       0.00000000       0.09090909 </v>
   <v>       0.27272727      -0.00000000       0.09090909 </v>
   <v>       0.36363636       0.00000000       0.09090909 </v>
   <v>       0.45454545      -0.00000000       0.09090909 </v>
   <v>       0.09090909       0.09090909       0.09090909 </v>
   <v>       0.18181818       0.09090909       0.09090909 </v>
   <v>       0.27272727       0.09090909       0.09090909 </v>
   <v>       0.36363636       0.09090909       0.09090909 </v>
   <v>       0.45454545       0.09090909       0.09090909 </v>
   <v>       0.18181818       0.18181818       0.09090909 </v>
   <v>       0.27272727       0.18181818       0.09090909 </v>
   <v>       0.36363636       0.18181818       0.09090909 </v>
   <v>       0.27272727       0.27272727       0.09090909 </v>
   <v>       0.36363636       0.27272727       0.09090909 </v>
   <v>       0.00000000       0.00000000       0.18181818 </v>
   <v>       0.09090909       0.00000000       0.18181818 </v>
   <v>       0.18181818       0.00000000       0.18181818 </v>
   <v>       0.27272727      -0.00000000       0.18181818 </v>
   <v>       0.36363636       0.00000000       0.18181818 </v>
   <v>       0.45454545      -0.00000000       0.18181818 </v>
   <v>       0.09090909       0.09090909       0.18181818 </v>
   <v>       0.18181818       0.09090909       0.18181818 </v>
   <v>       0.27272727       0.09090909       0.18181818 </v>
   <v>       0.36363636       0.09090909       0.18181818 </v>
   <v>       0.45454545       0.09090909       0.18181818 </v>
   <v>       0.18181818       0.18181818       0.18181818 </v>
   <v>       0.27272727       0.18181818       0.18181818 </v>
   <v>       0.36363636       0.18181818       0.18181818 </v>
   <v>       0.27272727       0.27272727       0.18181818 </v>
   <v>       0.36363636       0.27272727       0.18181818 </v>
   <v>       0.00000000       0.00000000       0.27272727 </v>
   <v>       0.09090909       0.00000000       0.27272727 </v>
   <v>       0.18181818       0.00000000       0.27272727 </v>
   <v>       0.27272727      -0.00000000       0.27272727 </v>
   <v>       0.36363636       0.00000000       0.27272727 </v>
   <v>       0.45454545      -0.00000000       0.27272727 </v>
   <v>       0.09090909       0.09090909       0.27272727 </v>
   <v>       0.18181818       0.09090909       0.27272727 </v>
   <v>       0.27272727       0.09090909       0.27272727 </v>
   <v>       0.36363636       0.09090909       0.27272727 </v>
   <v>       0.45454545       0.09090909       0.27272727 </v>
   <v>       0.18181818       0.18181818       0.27272727 </v>
   <v>       0.27272727       0.18181818       0.27272727 </v>
   <v>       0.36363636       0.18181818       0.27272727 </v>
   <v>       0.27272727       0.27272727       0.27272727 </v>
   <v>       0.36363636       0.27272727       0.27272727 </v>
   <v>       0.00000000       0.00000000       0.36363636 </v>
   <v>       0.09090909       0.00000000       0.36363636 </v>
   <v>       0.18181818       0.00000000       0.36363636 </v>
   <v>       0.27272727      -0.00000000       0.36363636 </v>
   <v>       0.36363636       0.00000000       0.36363636 </v>
   <v>       0.45454545      -0.00000000       0.36363636 </v>
   <v>       0.09090909       0.09090909       0.36363636 </v>
   <v>       0.18181818       0.09090909       0.36363636 </v>
   <v>       0.27272727       0.09090909       0.36363636 </v>
   <v>       0.36363636       0.09090909       0.36363636 </v>
   <v>       0.45454545       0.09090909       0.36363636 </v>
   <v>       0.18181818       0.18181818       0.36363636 </v>
   <v>       0.27272727       0.18181818       0.36363636 </v>
   <v>       0.36363636       0.18181818       0.36363636 </v>
   <v>       0.27272727       0.27272727       0.36363636 </v>
   <v>       0.36363636       0.27272727       0.36363636 </v>
   <v>       0.00000000       0.00000000       0.45454545 </v>
   <v>       0.09090909       0.00000000       0.45454545 </v>
   <v>       0.18181818       0.00000000       0.45454545 </v>
   <v>       0.27272727      -0.00000000       0.45454545 </v>
   <v>       0.36363636       0.00000000       0.45454545 </v>
   <v>       0.45454545      -0.00000000       0.45454545 </v>
   <v>       0.09090909       0.09090909       0.45454545 </v>
   <v>       0.18181818       0.09090909       0.45454545 </v>
   <v>       0.27272727       0.09090909       0.45454545 </v>
   <v>       0.36363636       0.09090909       0.45454545 </v>
   <v>       0.45454545       0.09090909       0.45454545 </v>
   <v>       0.18181818       0.18181818       0.45454545 </v>
   <v>       0.27272727       0.18181818       0.45454545 </v>
   <v>       0.36363636       0.18181818       0.45454545 </v>
   <v>       0.27272727       0.27272727       0.45454545 </v>
   <v>       0.36363636       0.27272727       0.45454545 </v>
  </varray>
  <varray name="weights" >
   <v>       0.00075131 </v>
   <v>       0.00450789 </v>
   <v>       0.00450789 </v>
   <v>       0.00450789 </v>
   <v>       0.00450789 </v>
   <v>       0.00450789 </v>
   <v>       0.00450789 </v>
   <v>       0.00901578 </v>
   <v>       0.00901578 </v>
   <v>       0.00901578 </v>
   <v>       0.00450789 </v>
   <v>       0.00450789 </v>
   <v>       0.00901578 </v>
   <v>       0.00901578 </v>
   <v>       0.00450789 </v>
   <v>       0.00450789 </v>
   <v>       0.00150263 </v>
   <v>       0.00901578 </v>
   <v>       0.00901578 </v>
   <v>       0.00901578 </v>
   <v>       0.00901578 </v>
   <v>       0.00901578 </v>
   <v>       0.00901578 </v>
   <v>       0.01803156 </v>
   <v>       0.01803156 </v>
   <v>       0.01803156 </v>
   <v>       0.00901578 </v>
   <v>       0.00901578 </v>
   <v>       0.01803156 </v>
   <v>       0.01803156 </v>
   <v>       0.00901578 </v>
   <v>       0.00901578 </v>
   <v>       0.00150263 </v>
   <v>       0.00901578 </v>
   <v>       0.00901578 </v>
   <v>       0.00901578 </v>
   <v>       0.00901578 </v>
   <v>       0.00901578 </v>
   <v>       0.00901578 </v>
   <v>       0.01803156 </v>
   <v>       0.01803156 </v>
   <v>       0.01803156 </v>
   <v>       0.00901578 </v>
   <v>       0.00901578 </v>
   <v>       0.01803156 </v>
   <v>       0.01803156 </v>
   <v>       0.00901578 </v>
   <v>       0.00901578 </v>
   <v>       0.00150263 </v>
   <v>       0.00901578 </v>
   <v>       0.00901578 </v>
   <v>       0.00901578 </v>
   <v>       0.00901578 </v>
   <v>       0.00901578 </v>
   <v>       0.00901578 </v>
   <v>       0.01803156 </v>
   <v>       0.01803156 </v>
   <v>       0.01803156 </v>
   <v>       0.00901578 </v>
   <v>       0.00901578 </v>
   <v>       0.01803156 </v>
   <v>       0.01803156 </v>
   <v>       0.00901578 </v>
   <v>       0.00901578 </v>
   <v>       0.00150263 </v>
   <v>       0.00901578 </v>
   <v>       0.00901578 </v>
   <v>       0.00901578 </v>
   <v>       0.00901578 </v>
   <v>       0.00901578 </v>
   <v>       0.00901578 </v>
   <v>       0.01803156 </v>
   <v>       0.01803156 </v>
   <v>       0.01803156 </v>
   <v>       0.00901578 </v>
   <v>       0.00901578 </v>
   <v>       0.01803156 </v>
   <v>       0.01803156 </v>
   <v>       0.00901578 </v>
   <v>       0.00901578 </v>
   <v>       0.00150263 </v>
   <v>       0.00901578 </v>
   <v>       0.00901578 </v>
   <v>       0.00901578 </v>
   <v>       0.00901578 </v>
   <v>       0.00901578 </v>
   <v>       0.00901578 </v>
   <v>       0.01803156 </v>
   <v>       0.01803156 </v>
   <v>       0.01803156 </v>
   <v>       0.00901578 </v>
   <v>       0.00901578 </v>
   <v>       0.01803156 </v>
   <v>       0.01803156 </v>
   <v>       0.00901578 </v>
   <v>       0.00901578 </v>
  </varray>
 </kpoints>
 <parameters>
  <separator name="general" >
   <i type="string" name="SYSTEM">unknown system</i>
   <i type="logical" name="LCOMPAT"> F  </i>
  </separator>
  <separator name="electronic" >
   <i type="string" name="PREC">normal</i>
   <i name="ENMAX">    280.00000000</i>
   <i name="ENAUG">    511.36800000</i>
   <i name="EDIFF">      0.00000100</i>
   <i type="int" name="IALGO">    38</i>
   <i type="int" name="IWAVPR">     0</i>
   <i type="int" name="NBANDS">    40</i>
   <i type="int" name="NBANDSLOW">    -1</i>
   <i type="int" name="NBANDSHIGH">    -1</i>
   <i name="NELECT">     16.00000000</i>
   <i type="int" name="TURBO">     0</i>
   <i type="int" name="IRESTART">     0</i>
   <i type="int" name="NREBOOT">     0</i>
   <i type="int" name="NMIN">     0</i>
   <i name="EREF">      0.00000000</i>
   <separator name="electronic smearing" >
    <i type="int" name="ISMEAR">     1</i>
    <i name="SIGMA">      0.20000000</i>
    <i name="KSPACING">      0.50000000</i>
    <i type="logical" name="KGAMMA"> T  </i>
    <i type="logical" name="KBLOWUP"> T  </i>
   </separator>
   <separator name="electronic projectors" >
    <i type="logical" name="LREAL"> F  </i>
    <v name="ROPT">      0.00000000</v>
    <i type="int" name="LMAXPAW">  -100</i>
    <i type="int" name="LMAXMIX">     2</i>
    <i type="logical" name="NLSPLINE"> F  </i>
   </separator>
   <separator name="electronic startup" >
    <i type="int" name="ISTART">     0</i>
    <i type="int" name="ICHARG">     1</i>
    <i type="int" name="INIWAV">     1</i>
   </separator>
   <separator name="electronic spin" >
    <i type="int" name="ISPIN">     1</i>
    <i type="logical" name="LNONCOLLINEAR"> F  </i>
    <v name="MAGMOM">      1.00000000      1.00000000</v>
    <i name="NUPDOWN">     -1.00000000</i>
    <i type="logical" name="LSORBIT"> F  </i>
    <v name="SAXIS">      0.00000000      0.00000000      1.00000000</v>
    <i type="logical" name="LSPIRAL"> F  </i>
    <v name="QSPIRAL">      0.00000000      0.00000000      0.00000000</v>
    <i type="logical" name="LZEROZ"> F  </i>
   </separator>
   <separator name="electronic exchange-correlation" >
    <i type="logical" name="LASPH"> F  </i>
    <i type="logical" name="LMETAGGA"> F  </i>
   </separator>
   <separator name="electronic convergence" >
    <i type="int" name="NELM">    60</i>
    <i type="int" name="NELMDL">    -5</i>
    <i type="int" name="NELMIN">     2</i>
    <i name="ENINI">    280.00000000</i>
    <separator name="electronic convergence detail" >
     <i type="logical" name="LDIAG"> T  </i>
     <i type="logical" name="LSUBROT"> F  </i>
     <i name="WEIMIN">      0.00000000</i>
     <i name="EBREAK">      0.00000001</i>
     <i name="DEPER">      0.30000000</i>
     <i type="int" name="NRMM">     4</i>
     <i name="TIME">      0.40000000</i>
    </separator>
   </separator>
   <separator name="electronic mixer" >
    <i name="AMIX">      0.40000000</i>
    <i name="BMIX">      1.00000000</i>
    <i name="AMIN">      0.10000000</i>
    <i name="AMIX_MAG">      1.60000000</i>
    <i name="BMIX_MAG">      1.00000000</i>
    <separator name="electronic mixer details" >
     <i type="int" name="IMIX">     4</i>
     <i type="logical" name="MIXFIRST"> F  </i>
     <i type="int" name="MAXMIX">   -45</i>
     <i name="WC">    100.00000000</i>
     <i type="int" name="INIMIX">     1</i>
     <i type="int" name="MIXPRE">     1</i>
     <i type="int" name="MREMOVE">     5</i>
    </separator>
   </separator>
   <separator name="electronic dipolcorrection" >
    <i type="logical" name="LDIPOL"> F  </i>
    <i type="logical" name="LMONO"> F  </i>
    <i type="int" name="IDIPOL">     0</i>
    <i name="EPSILON">      1.00000000</i>
    <v name="DIPOL">   -100.00000000   -100.00000000   -100.00000000</v>
    <i name="EFIELD">      0.00000000</i>
   </separator>
  </separator>
  <separator name="grids" >
   <i type="int" name="NGX">    10</i>
   <i type="int" name="NGY">    10</i>
   <i type="int" name="NGZ">    18</i>
   <i type="int" name="NGXF">    20</i>
   <i type="int" name="NGYF">    20</i>
   <i type="int" name="NGZF">    36</i>
   <i type="logical" name="ADDGRID"> F  </i>
  </separator>
  <separator name="ionic" >
   <i type="int" name="NSW">     0</i>
   <i type="int" name="IBRION">    -1</i>
   <i type="int" name="MDALGO">     0</i>
   <i type="int" name="ISIF">     2</i>
   <i name="PSTRESS">      0.00000000</i>
   <i name="EDIFFG">      0.00001000</i>
   <i type="int" name="NFREE">     0</i>
   <i name="POTIM">      0.50000000</i>
   <i name="SMASS">     -3.00000000</i>
   <i name="SCALEE">      1.00000000</i>
  </separator>
  <separator name="ionic md" >
   <i name="TEBEG">      0.00010000</i>
   <i name="TEEND">      0.00010000</i>
   <i type="int" name="NBLOCK">     1</i>
   <i type="int" name="KBLOCK">     1</i>
   <i type="int" name="NPACO">   256</i>
   <i name="APACO">     16.00000000</i>
  </separator>
  <separator name="symmetry" >
   <i type="int" name="ISYM">     2</i>
   <i name="SYMPREC">      0.00001000</i>
  </separator>
  <separator name="dos" >
   <i type="int" name="LORBIT">     0</i>
   <v name="RWIGS">     -1.00000000</v>
   <i type="int" name="NEDOS">   301</i>
   <i name="EMIN">     10.00000000</i>
   <i name="EMAX">    -10.00000000</i>
   <i name="EFERMI">      0.00000000</i>
  </separator>
  <separator name="writing" >
   <i type="int" name="NWRITE">     2</i>
   <i type="logical" name="LWAVE"> T  </i>
   <i type="logical" name="LDOWNSAMPLE"> F  </i>
   <i type="logical" name="LCHARG"> T  </i>
   <i type="logical" name="LPARD"> F  </i>
   <i type="logical" name="LVTOT"> F  </i>
   <i type="logical" name="LVHAR"> F  </i>
   <i type="logical" name="LELF"> F  </i>
   <i type="logical" name="LOPTICS"> F  </i>
   <v name="STM">      0.00000000      0.00000000      0.00000000      0.00000000      0.00000000      0.00000000      0.00000000</v>
  </separator>
  <separator name="performance" >
   <i type="int" name="NPAR">     1</i>
   <i type="int" name="NSIM">     4</i>
   <i type="int" name="NBLK">    -1</i>
   <i type="logical" name="LPLANE"> T  </i>
   <i type="logical" name="LSCALAPACK"> F  </i>
   <i type="logical" name="LSCAAWARE"> F  </i>
   <i type="logical" name="LSCALU"> F  </i>
   <i type="logical" name="LASYNC"> F  </i>
   <i type="logical" name="LORBITALREAL"> F  </i>
  </separator>
  <separator name="miscellaneous" >
   <i type="int" name="IDIOT">     3</i>
   <i type="int" name="PHON_NSTRUCT">    -1</i>
   <i type="logical" name="LMUSIC"> F  </i>
   <v name="POMASS">     55.84700000</v>
   <v name="DARWINR">      0.00000000</v>
   <v name="DARWINV">      1.00000000</v>
   <i type="logical" name="LCORR"> T  </i>
  </separator>
  <i type="logical" name="GGA_COMPAT"> T  </i>
  <i type="logical" name="LBERRY"> F  </i>
  <i type="int" name="ICORELEVEL">     0</i>
  <i type="logical" name="LDAU"> F  </i>
  <i type="int" name="I_CONSTRAINED_M">     0</i>
  <separator name="electronic exchange-correlation" >
   <i type="string" name="GGA">PE</i>
   <i type="int" name="VOSKOWN">     0</i>
   <i type="logical" name="LHFCALC"> F  </i>
   <i type="string" name="PRECFOCK"></i>
   <i type="logical" name="LSYMGRAD"> F  </i>
   <i type="logical" name="LHFONE"> F  </i>
   <i type="logical" name="LRHFCALC"> F  </i>
   <i type="logical" name="LTHOMAS"> F  </i>
   <i type="logical" name="LMODELHF"> F  </i>
   <i type="logical" name="LFOCKACE"> F  </i>
   <i name="ENCUT4O">     -1.00000000</i>
   <i type="int" name="EXXOEP">     0</i>
   <i type="int" name="FOURORBIT">     0</i>
   <i name="AEXX">      0.00000000</i>
   <i name="HFALPHA">      0.00000000</i>
   <i name="MCALPHA">      0.00000000</i>
   <i name="ALDAX">      1.00000000</i>
   <i name="AGGAX">      1.00000000</i>
   <i name="ALDAC">      1.00000000</i>
   <i name="AGGAC">      1.00000000</i>
   <i type="int" name="NKREDX">     1</i>
   <i type="int" name="NKREDY">     1</i>
   <i type="int" name="NKREDZ">     1</i>
   <i type="logical" name="SHIFTRED"> F  </i>
   <i type="logical" name="ODDONLY"> F  </i>
   <i type="logical" name="EVENONLY"> F  </i>
   <i type="int" name="LMAXFOCK">     0</i>
   <i type="int" name="NMAXFOCKAE">     0</i>
   <i type="logical" name="LFOCKAEDFT"> F  </i>
   <i name="HFSCREEN">      0.00000000</i>
   <i name="HFSCREENC">      0.00000000</i>
   <i type="int" name="NBANDSGWLOW">     0</i>
  </separator>
  <separator name="vdW DFT" >
   <i type="logical" name="LUSE_VDW"> F  </i>
   <i name="Zab_VDW">     -0.84910000</i>
   <i name="PARAM1">      0.12340000</i>
   <i name="PARAM2">      1.00000000</i>
   <i name="PARAM3">      0.00000000</i>
  </separator>
  <separator name="model GW" >
   <i type="int" name="MODEL_GW">     0</i>
   <i name="MODEL_EPS0">      6.01424235</i>
   <i name="MODEL_ALPHA">      1.00000000</i>
  </separator>
  <separator name="linear response parameters" >
   <i type="logical" name="LEPSILON"> F  </i>
   <i type="logical" name="LRPA"> F  </i>
   <i type="logical" name="LNABLA"> F  </i>
   <i type="logical" name="LVEL"> F  </i>
   <i type="int" name="KINTER">     0</i>
   <i name="CSHIFT">      0.10000000</i>
   <i name="OMEGAMAX">     -1.00000000</i>
   <i name="DEG_THRESHOLD">      0.00200000</i>
   <i name="RTIME">     -0.10000000</i>
   <i name="WPLASMAI">      0.00000000</i>
   <v name="DFIELD">      0.00000000      0.00000000      0.00000000</v>
   <v name="WPLASMA">      0.00000000      0.00000000      0.00000000      0.00000000      0.00000000      0.00000000      0.00000000      0.00000000      0.00000000</v>
  </separator>
  <separator name="orbital magnetization" >
   <i type="logical" name="NUCIND"> F  </i>
   <v name="MAGPOS">      0.00000000      0.00000000      0.00000000</v>
   <i type="logical" name="LNICSALL"> T  </i>
   <i type="logical" name="ORBITALMAG"> F  </i>
   <i type="logical" name="LMAGBLOCH"> F  </i>
   <i type="logical" name="LCHIMAG"> F  </i>
   <i type="logical" name="LGAUGE"> T  </i>
   <i type="int" name="MAGATOM">     0</i>
   <v name="MAGDIPOL">      0.00000000      0.00000000      0.00000000</v>
   <v name="AVECCONST">      0.00000000      0.00000000      0.00000000</v>
  </separator>
  <separator name="response functions" >
   <i type="logical" name="LFINITE_TEMPERATURE"> F  </i>
   <i type="logical" name="LADDER"> F  </i>
   <i type="logical" name="LRPAFORCE"> F  </i>
   <i type="logical" name="LFXC"> F  </i>
   <i type="logical" name="LHARTREE"> T  </i>
   <i type="int" name="IBSE">     0</i>
   <v type="int" name="KPOINT">    -1     0     0     0</v>
   <i type="logical" name="LTCTC"> F  </i>
   <i type="logical" name="LTCTE"> F  </i>
   <i type="logical" name="LTETE"> F  </i>
   <i type="logical" name="LTRIPLET"> F  </i>
   <i type="logical" name="LFXCEPS"> F  </i>
   <i type="logical" name="LFXHEG"> F  </i>
   <i type="int" name="NATURALO">     2</i>
   <i type="logical" name="LHOLEGF"> F  </i>
   <i type="logical" name="L2ORDER"> F  </i>
   <i type="logical" name="LDMP1"> F  </i>
   <i type="logical" name="LMP2LT"> F  </i>
   <i type="logical" name="LSMP2LT"> F  </i>
   <i type="logical" name="LGWLF"> F  </i>
   <i name="ENCUTGW">     -2.00000000</i>
   <i name="ENCUTGWSOFT">     -2.00000000</i>
   <i name="ENCUTLF">     -1.00000000</i>
   <i type="logical" name="LESF_SPLINES"> F  </i>
   <i type="int" name="LMAXMP2">    -1</i>
   <i name="SCISSOR">      0.00000000</i>
   <i type="int" name="NOMEGA">     0</i>
   <i type="int" name="NOMEGAR">     0</i>
   <i type="int" name="NBANDSGW">    -1</i>
   <i type="int" name="NBANDSO">    -1</i>
   <i type="int" name="NBANDSV">    -1</i>
   <i type="int" name="NELM">     1</i>
   <i type="int" name="NELMHF">     1</i>
   <i type="int" name="DIM">     3</i>
   <i type="int" name="IESPILON">     4</i>
   <i type="int" name="ANTIRES">     0</i>
   <i name="OMEGAMAX">    -30.00000000</i>
   <i name="OMEGAMIN">    -30.00000000</i>
   <i name="OMEGATL">   -200.00000000</i>
   <i type="int" name="OMEGAGRID">     0</i>
   <i name="CSHIFT">     -0.10000000</i>
   <i type="logical" name="LSELFENERGY"> F  </i>
   <i type="logical" name="LSPECTRAL"> F  </i>
   <i type="logical" name="LSPECTRALGW"> F  </i>
   <i type="logical" name="LSINGLES"> F  </i>
   <i type="logical" name="LFERMIGW"> F  </i>
   <i type="logical" name="ODDONLYGW"> F  </i>
   <i type="logical" name="EVENONLYGW"> F  </i>
   <i type="int" name="NKREDLFX">     1</i>
   <i type="int" name="NKREDLFY">     1</i>
   <i type="int" name="NKREDLFZ">     1</i>
   <i type="int" name="MAXMEM">  2800</i>
   <i type="int" name="TELESCOPE">     0</i>
   <i type="int" name="NTAUPAR">    -1</i>
   <i type="int" name="NOMEGAPAR">    -1</i>
   <i name="DAMP_NEWTON">      0.80000001</i>
   <i name="LAMBDA">      1.00000000</i>
  </separator>
  <separator name="External order field" >
   <i name="OFIELD_KAPPA">      0.00000000</i>
   <v name="OFIELD_K">      0.00000000      0.00000000      0.00000000</v>
   <i name="OFIELD_Q6_NEAR">      0.00000000</i>
   <i name="OFIELD_Q6_FAR">      0.00000000</i>
   <i name="OFIELD_A">      0.00000000</i>
  </separator>
 </parameters>
 <atominfo>
  <atoms>       2 </atoms>
  <types>       1 </types>
  <array name="atoms" >
   <dimension dim="1">ion</dimension>
   <field type="string">element</field>
   <field type="int">atomtype</field>
   <set>
    <rc><c>Fe</c><c>   1</c></rc>
    <rc><c>Fe</c><c>   1</c></rc>
   </set>
  </array>
  <array name="atomtypes" >
   <dimension dim="1">type</dimension>
   <field type="int">atomspertype</field>
   <field type="string">element</field>
   <field>mass</field>
   <field>valence</field>
   <field type="string">pseudopotential</field>
   <set>
    <rc><c>   2</c><c>Fe</c><c>     55.84700000</c><c>      8.00000000</c><c>  PAW_PBE Fe 06Sep2000                  </c></rc>
   </set>
  </array>
 </atominfo>
 <structure name="initialpos" >
  <crystal>
   <varray name="basis" >
    <v>       2.33000000       0.00000000       0.00000000 </v>
    <v>      -1.16500000       2.01783919       0.00000000 </v>
    <v>       0.00000000       0.00000000       4.26400000 </v>
   </varray>
   <i name="volume">     20.04747450 </i>
   <varray name="rec_basis" >
    <v>       0.42918455       0.24778982       0.00000000 </v>
    <v>       0.00000000       0.49557963       0.00000000 </v>
    <v>       0.00000000       0.00000000       0.23452158 </v>
   </varray>
  </crystal>
  <varray name="positions" >
   <v>       0.00000000       0.00000000       0.00000000 </v>
   <v>       0.33333333       0.66666667       0.50000000 </v>
  </varray>
 </structure>
 <calculation>
  <scstep>
   <time name="dav">    0.78    0.80</time>
   <time name="total">    0.79    0.81</time>
   <energy>
    <i name="alphaZ">    137.90021480 </i>
    <i name="ewald">  -1231.97759071 </i>
    <i name="hartreedc">   -206.10724755 </i>
    <i name="XCdc">      8.60958693 </i>
    <i name="pawpsdc">   1109.69170683 </i>
    <i name="pawaedc">  -1125.09647265 </i>
    <i name="eentropy">     -0.00123700 </i>
    <i name="bandstr">    180.46250505 </i>
    <i name="atom">   1188.57490811 </i>
    <i name="e_fr_energy">     62.05637381 </i>
    <i name="e_wo_entrp">     62.05761081 </i>
    <i name="e_0_energy">     62.05678614 </i>
   </energy>
  </scstep>
  <scstep>
   <time name="dav">    0.69    0.69</time>
   <time name="total">    0.69    0.69</time>
   <energy>
    <i name="e_fr_energy">    -14.46676861 </i>
    <i name="e_wo_entrp">    -14.46988873 </i>
    <i name="e_0_energy">    -14.46780865 </i>
   </energy>
  </scstep>
  <scstep>
   <time name="dav">    0.80    0.80</time>
   <time name="total">    0.81    0.81</time>
   <energy>
    <i name="e_fr_energy">    -18.86543963 </i>
    <i name="e_wo_entrp">    -18.86522878 </i>
    <i name="e_0_energy">    -18.86536935 </i>
   </energy>
  </scstep>
  <scstep>
   <time name="dav">    0.77    0.77</time>
   <time name="total">    0.77    0.77</time>
   <energy>
    <i name="e_fr_energy">    -18.88452209 </i>
    <i name="e_wo_entrp">    -18.88432685 </i>
    <i name="e_0_energy">    -18.88445701 </i>
   </energy>
  </scstep>
  <scstep>
   <time name="dav">    0.76    0.76</time>
   <time name="total">    0.79    0.79</time>
   <energy>
    <i name="e_fr_energy">    -18.88454335 </i>
    <i name="e_wo_entrp">    -18.88434807 </i>
    <i name="e_0_energy">    -18.88447825 </i>
   </energy>
  </scstep>
  <scstep>
   <time name="dav">    0.95    0.95</time>
   <time name="total">    0.99    0.99</time>
   <energy>
    <i name="e_fr_energy">    -16.12282726 </i>
    <i name="e_wo_entrp">    -16.12476656 </i>
    <i name="e_0_energy">    -16.12347370 </i>
   </energy>
  </scstep>
  <scstep>
   <time name="dav">    0.83    0.83</time>
   <time name="total">    0.86    0.86</time>
   <energy>
    <i name="e_fr_energy">    -15.94100860 </i>
    <i name="e_wo_entrp">    -15.94294345 </i>
    <i name="e_0_energy">    -15.94165355 </i>
   </energy>
  </scstep>
  <scstep>
   <time name="dav">    0.83    0.83</time>
   <time name="total">    0.87    0.87</time>
   <energy>
    <i name="e_fr_energy">    -15.91235052 </i>
    <i name="e_wo_entrp">    -15.91437418 </i>
    <i name="e_0_energy">    -15.91302507 </i>
   </energy>
  </scstep>
  <scstep>
   <time name="dav">    0.90    0.90</time>
   <time name="total">    0.93    0.93</time>
   <energy>
    <i name="e_fr_energy">    -15.90292175 </i>
    <i name="e_wo_entrp">    -15.90496601 </i>
    <i name="e_0_energy">    -15.90360317 </i>
   </energy>
  </scstep>
  <scstep>
   <time name="dav">    0.75    0.75</time>
   <time name="total">    0.78    0.78</time>
   <energy>
    <i name="e_fr_energy">    -15.90295553 </i>
    <i name="e_wo_entrp">    -15.90499960 </i>
    <i name="e_0_energy">    -15.90363688 </i>
   </energy>
  </scstep>
  <scstep>
   <time name="dav">    0.77    0.77</time>
   <time name="total">    0.80    0.80</time>
   <energy>
    <i name="e_fr_energy">    -15.90294673 </i>
    <i name="e_wo_entrp">    -15.90499063 </i>
    <i name="e_0_energy">    -15.90362803 </i>
   </energy>
  </scstep>
  <scstep>
   <time name="dav">    0.58    0.58</time>
   <time name="total">    0.61    0.61</time>
   <energy>
    <i name="e_fr_energy">    -15.90294570 </i>
    <i name="e_wo_entrp">    -15.90498963 </i>
    <i name="e_0_energy">    -15.90362701 </i>
   </energy>
  </scstep>
  <scstep>
   <time name="dav">    0.55    0.55</time>
   <time name="total">    0.56    0.56</time>
   <energy>
    <i name="alphaZ">    137.90021480 </i>
    <i name="ewald">  -1231.97759071 </i>
    <i name="hartreedc">   -172.33931641 </i>
    <i name="XCdc">      7.03513808 </i>
    <i name="pawpsdc">   1503.04055413 </i>
    <i name="pawaedc">  -1520.78284458 </i>
    <i name="eentropy">      0.00204391 </i>
    <i name="bandstr">     72.64394666 </i>
    <i name="atom">   1188.57490811 </i>
    <i name="e_fr_energy">    -15.90294599 </i>
    <i name="e_wo_entrp">    -15.90498990 </i>
    <i name="e_0_energy">    -15.90362729 </i>
   </energy>
  </scstep>
  <structure>
   <crystal>
    <varray name="basis" >
     <v>       2.33000000       0.00000000       0.00000000 </v>
     <v>      -1.16500000       2.01783919       0.00000000 </v>
     <v>       0.00000000       0.00000000       4.26400000 </v>
    </varray>
    <i name="volume">     20.04747450 </i>
    <varray name="rec_basis" >
     <v>       0.42918455       0.24778982       0.00000000 </v>
     <v>       0.00000000       0.49557963       0.00000000 </v>
     <v>       0.00000000       0.00000000       0.23452158 </v>
    </varray>
   </crystal>
   <varray name="positions" >
    <v>       0.00000000       0.00000000       0.00000000 </v>
    <v>       0.33333333       0.66666667       0.50000000 </v>
   </varray>
  </structure>
  <varray name="forces" >
   <v>       0.00000000      -0.00000000       0.00000000 </v>
   <v>      -0.00000000       0.00000000      -0.00000000 </v>
  </varray>
  <varray name="stress" >
   <v>     305.71300167      -0.00000000       0.00000000 </v>
   <v>      -0.00000000     305.71300167      -0.00000000 </v>
   <v>       0.00000000       0.00000000    -354.58734691 </v>
  </varray>
  <energy>
   <i name="e_fr_energy">    -15.90294599 </i>
   <i name="e_wo_entrp">    -15.90498990 </i>
   <i name="e_0_energy">    -15.90362729 </i>
  </energy>
  <time name="totalsc">   10.57   10.59</time>
  <eigenvalues>
   <array>
    <dimension dim="1">band</dimension>
    <dimension dim="2">kpoint</dimension>
    <dimension dim="3">spin</dimension>
    <field>eigene</field>
    <field>occ</field>
    <set>
     <set comment="spin 1">
      <set comment="kpoint 1">
       <r>   -1.8958    1.0000 </r>
       <r>    1.9299    1.0000 </r>
       <r>    4.6009    1.0000 </r>
       <r>    5.4949    1.0000 </r>
       <r>    5.4950    1.0000 </r>
       <r>    5.7595    1.0000 </r>
       <r>    5.7596    1.0000 </r>
       <r>    5.9772    1.0000 </r>
       <r>    6.9496    0.9890 </r>
       <r>    6.9496    0.9889 </r>
       <r>    7.8815   -0.0000 </r>
       <r>    7.8815   -0.0000 </r>
       <r>   13.9984    0.0000 </r>
       <r>   29.5172    0.0000 </r>
       <r>   31.2141    0.0000 </r>
       <r>   33.9897    0.0000 </r>
       <r>   36.3385    0.0000 </r>
       <r>   36.9021    0.0000 </r>
       <r>   36.9022    0.0000 </r>
       <r>   37.6710    0.0000 </r>
       <r>   37.6712    0.0000 </r>
       <r>   40.1208    0.0000 </r>
       <r>   40.1208    0.0000 </r>
       <r>   41.0675    0.0000 </r>
       <r>   43.6103    0.0000 </r>
       <r>   43.6103    0.0000 </r>
       <r>   43.8879    0.0000 </r>
       <r>   47.6235    0.0000 </r>
       <r>   47.6239    0.0000 </r>
       <r>   49.4833    0.0000 </r>
       <r>   49.4834    0.0000 </r>
       <r>   51.4407    0.0000 </r>
       <r>   58.7713    0.0000 </r>
       <r>   61.8013    0.0000 </r>
       <r>   61.8021    0.0000 </r>
       <r>   62.0070    0.0000 </r>
       <r>   62.6490    0.0000 </r>
       <r>   63.6545    0.0000 </r>
       <r>   63.9005    0.0000 </r>
       <r>   63.9013    0.0000 </r>
      </set>
      <set comment="kpoint 2">
       <r>   -1.5517    1.0000 </r>
       <r>    2.1993    1.0000 </r>
       <r>    4.6755    1.0000 </r>
       <r>    5.2680    1.0000 </r>
       <r>    5.3763    1.0000 </r>
       <r>    5.6315    1.0000 </r>
       <r>    5.6978    1.0000 </r>
       <r>    5.9542    1.0000 </r>
       <r>    6.7620    1.0171 </r>
       <r>    6.8368    1.0331 </r>
       <r>    7.9016   -0.0000 </r>
       <r>    8.8648   -0.0000 </r>
       <r>   14.0243    0.0000 </r>
       <r>   29.9507    0.0000 </r>
       <r>   29.9675    0.0000 </r>
       <r>   32.5084    0.0000 </r>
       <r>   34.0236    0.0000 </r>
       <r>   35.8607    0.0000 </r>
       <r>   36.0744    0.0000 </r>
       <r>   36.3188    0.0000 </r>
       <r>   39.4092    0.0000 </r>
       <r>   39.8696    0.0000 </r>
       <r>   40.6821    0.0000 </r>
       <r>   41.2815    0.0000 </r>
       <r>   44.9075    0.0000 </r>
       <r>   44.9340    0.0000 </r>
       <r>   45.2750    0.0000 </r>
       <r>   45.3301    0.0000 </r>
       <r>   48.7049    0.0000 </r>
       <r>   50.6916    0.0000 </r>
       <r>   51.9293    0.0000 </r>
       <r>   53.5695    0.0000 </r>
       <r>   58.0966    0.0000 </r>
       <r>   59.9428    0.0000 </r>
       <r>   60.4954    0.0000 </r>
       <r>   61.1707    0.0000 </r>
       <r>   61.3910    0.0000 </r>
       <r>   63.8777    0.0000 </r>
       <r>   64.3000    0.0000 </r>
       <r>   64.8908    0.0000 </r>
      </set>
      <set comment="kpoint 3">
       <r>   -0.5808    1.0000 </r>
       <r>    2.8346    1.0000 </r>
       <r>    4.2833    1.0000 </r>
       <r>    4.6459    1.0000 </r>
       <r>    5.1128    1.0000 </r>
       <r>    5.6810    1.0000 </r>
       <r>    6.2690    1.0000 </r>
       <r>    6.3236    1.0000 </r>
       <r>    6.4888    1.0001 </r>
       <r>    6.5730    1.0005 </r>
       <r>    7.9339   -0.0000 </r>
       <r>   10.6290   -0.0000 </r>
       <r>   14.1403    0.0000 </r>
       <r>   26.1547    0.0000 </r>
       <r>   30.8897    0.0000 </r>
       <r>   31.1256    0.0000 </r>
       <r>   31.1851    0.0000 </r>
       <r>   31.6035    0.0000 </r>
       <r>   35.6735    0.0000 </r>
       <r>   36.9753    0.0000 </r>
       <r>   37.1856    0.0000 </r>
       <r>   38.3972    0.0000 </r>
       <r>   41.3377    0.0000 </r>
       <r>   41.8580    0.0000 </r>
       <r>   45.3116    0.0000 </r>
       <r>   46.3791    0.0000 </r>
       <r>   47.7059    0.0000 </r>
       <r>   49.8493    0.0000 </r>
       <r>   51.3962    0.0000 </r>
       <r>   53.8897    0.0000 </r>
       <r>   54.6884    0.0000 </r>
       <r>   56.7227    0.0000 </r>
       <r>   57.2068    0.0000 </r>
       <r>   57.2083    0.0000 </r>
       <r>   58.7553    0.0000 </r>
       <r>   59.9911    0.0000 </r>
       <r>   62.0003    0.0000 </r>
       <r>   64.1946    0.0000 </r>
       <r>   64.5415    0.0000 </r>
       <r>   66.1724    0.0000 </r>
      </set>
      <set comment="kpoint 4">
       <r>    0.7863    1.0000 </r>
       <r>    3.1224    1.0000 </r>
       <r>    3.5126    1.0000 </r>
       <r>    4.6707    1.0000 </r>
       <r>    4.9231    1.0000 </r>
       <r>    5.7791    1.0000 </r>
       <r>    6.2718    1.0000 </r>
       <r>    6.4592    1.0000 </r>
       <r>    7.0787    0.6257 </r>
       <r>    7.2381    0.0600 </r>
       <r>    7.9386   -0.0000 </r>
       <r>   12.6712    0.0000 </r>
       <r>   14.4129    0.0000 </r>
       <r>   22.0394    0.0000 </r>
       <r>   27.4584    0.0000 </r>
       <r>   28.6526    0.0000 </r>
       <r>   29.3217    0.0000 </r>
       <r>   31.8397    0.0000 </r>
       <r>   34.2792    0.0000 </r>
       <r>   36.3542    0.0000 </r>
       <r>   37.5013    0.0000 </r>
       <r>   37.6416    0.0000 </r>
       <r>   38.7643    0.0000 </r>
       <r>   41.9295    0.0000 </r>
       <r>   49.0344    0.0000 </r>
       <r>   50.0339    0.0000 </r>
       <r>   51.3156    0.0000 </r>
       <r>   51.8705    0.0000 </r>
       <r>   51.8769    0.0000 </r>
       <r>   54.5884    0.0000 </r>
       <r>   55.4793    0.0000 </r>
       <r>   57.2353    0.0000 </r>
       <r>   58.1300    0.0000 </r>
       <r>   58.9680    0.0000 </r>
       <r>   60.1525    0.0000 </r>
       <r>   62.3913    0.0000 </r>
       <r>   63.3862    0.0000 </r>
       <r>   64.0973    0.0000 </r>
       <r>   65.4735    0.0000 </r>
       <r>   66.2083    0.0000 </r>
      </set>
      <set comment="kpoint 5">
       <r>    1.9676    1.0000 </r>
       <r>    2.8297    1.0000 </r>
       <r>    3.0093    1.0000 </r>
       <r>    4.7753    1.0000 </r>
       <r>    5.2963    1.0000 </r>
       <r>    5.4858    1.0000 </r>
       <r>    6.0213    1.0000 </r>
       <r>    7.7766   -0.0000 </r>
       <r>    7.8974   -0.0000 </r>
       <r>    7.9225   -0.0000 </r>
       <r>    7.9927   -0.0000 </r>
       <r>   14.5446    0.0000 </r>
       <r>   14.8841    0.0000 </r>
       <r>   18.8951    0.0000 </r>
       <r>   24.0508    0.0000 </r>
       <r>   26.2947    0.0000 </r>
       <r>   26.7714    0.0000 </r>
       <r>   31.2968    0.0000 </r>
       <r>   33.4508    0.0000 </r>
       <r>   36.6533    0.0000 </r>
       <r>   37.1812    0.0000 </r>
       <r>   38.1217    0.0000 </r>
       <r>   38.2173    0.0000 </r>
       <r>   41.8348    0.0000 </r>
       <r>   48.4035    0.0000 </r>
       <r>   50.5926    0.0000 </r>
       <r>   52.1507    0.0000 </r>
       <r>   55.2234    0.0000 </r>
       <r>   55.4467    0.0000 </r>
       <r>   55.5407    0.0000 </r>
       <r>   56.8034    0.0000 </r>
       <r>   59.2227    0.0000 </r>
       <r>   59.3496    0.0000 </r>
       <r>   60.5346    0.0000 </r>
       <r>   62.6216    0.0000 </r>
       <r>   63.9614    0.0000 </r>
       <r>   64.0774    0.0000 </r>
       <r>   65.3092    0.0000 </r>
       <r>   65.9244    0.0000 </r>
       <r>   67.4915    0.0000 </r>
      </set>
      <set comment="kpoint 6">
       <r>    2.3778    1.0000 </r>
       <r>    2.5834    1.0000 </r>
       <r>    2.7656    1.0000 </r>
       <r>    5.0129    1.0000 </r>
       <r>    5.3873    1.0000 </r>
       <r>    5.7428    1.0000 </r>
       <r>    5.8791    1.0000 </r>
       <r>    7.9055   -0.0000 </r>
       <r>    8.4069   -0.0000 </r>
       <r>    8.4956   -0.0000 </r>
       <r>    9.5431   -0.0000 </r>
       <r>   13.0112    0.0000 </r>
       <r>   17.0011    0.0000 </r>
       <r>   18.5950    0.0000 </r>
       <r>   21.3345    0.0000 </r>
       <r>   23.4422    0.0000 </r>
       <r>   25.7199    0.0000 </r>
       <r>   30.7238    0.0000 </r>
       <r>   33.1648    0.0000 </r>
       <r>   35.4782    0.0000 </r>
       <r>   36.9284    0.0000 </r>
       <r>   39.2726    0.0000 </r>
       <r>   40.7525    0.0000 </r>
       <r>   40.9163    0.0000 </r>
       <r>   45.0070    0.0000 </r>
       <r>   50.8615    0.0000 </r>
       <r>   52.6233    0.0000 </r>
       <r>   56.0556    0.0000 </r>
       <r>   58.0023    0.0000 </r>
       <r>   58.5763    0.0000 </r>
       <r>   59.1931    0.0000 </r>
       <r>   60.6207    0.0000 </r>
       <r>   61.0403    0.0000 </r>
       <r>   62.1079    0.0000 </r>
       <r>   63.4465    0.0000 </r>
       <r>   64.2272    0.0000 </r>
       <r>   65.8595    0.0000 </r>
       <r>   65.9353    0.0000 </r>
       <r>   67.5783    0.0000 </r>
       <r>   68.2959    0.0000 </r>
      </set>
      <set comment="kpoint 7">
       <r>   -0.8912    1.0000 </r>
       <r>    2.6739    1.0000 </r>
       <r>    4.5422    1.0000 </r>
       <r>    4.6553    1.0000 </r>
       <r>    5.3290    1.0000 </r>
       <r>    5.3874    1.0000 </r>
       <r>    6.1176    1.0000 </r>
       <r>    6.3548    1.0000 </r>
       <r>    6.3663    1.0000 </r>
       <r>    6.7710    1.0191 </r>
       <r>    7.8924   -0.0000 </r>
       <r>   10.1335   -0.0000 </r>
       <r>   14.1005    0.0000 </r>
       <r>   27.9297    0.0000 </r>
       <r>   29.2531    0.0000 </r>
       <r>   30.6943    0.0000 </r>
       <r>   33.0105    0.0000 </r>
       <r>   34.8382    0.0000 </r>
       <r>   34.9627    0.0000 </r>
       <r>   35.7579    0.0000 </r>
       <r>   36.1921    0.0000 </r>
       <r>   41.9909    0.0000 </r>
       <r>   42.1176    0.0000 </r>
       <r>   42.7639    0.0000 </r>
       <r>   43.7616    0.0000 </r>
       <r>   44.2490    0.0000 </r>
       <r>   44.6504    0.0000 </r>
       <r>   50.5493    0.0000 </r>
       <r>   52.3458    0.0000 </r>
       <r>   52.4498    0.0000 </r>
       <r>   52.7550    0.0000 </r>
       <r>   56.5100    0.0000 </r>
       <r>   57.3122    0.0000 </r>
       <r>   57.6574    0.0000 </r>
       <r>   59.0172    0.0000 </r>
       <r>   60.0261    0.0000 </r>
       <r>   61.5529    0.0000 </r>
       <r>   64.3142    0.0000 </r>
       <r>   64.6955    0.0000 </r>
       <r>   66.1271    0.0000 </r>
      </set>
      <set comment="kpoint 8">
       <r>    0.3070    1.0000 </r>
       <r>    3.2783    1.0000 </r>
       <r>    3.7911    1.0000 </r>
       <r>    4.4185    1.0000 </r>
       <r>    5.0211    1.0000 </r>
       <r>    5.7729    1.0000 </r>
       <r>    5.8585    1.0000 </r>
       <r>    6.4963    1.0001 </r>
       <r>    6.8633    1.0355 </r>
       <r>    7.1369    0.3823 </r>
       <r>    7.8586   -0.0000 </r>
       <r>   11.9560   -0.0000 </r>
       <r>   14.3382    0.0000 </r>
       <r>   24.1560    0.0000 </r>
       <r>   26.8500    0.0000 </r>
       <r>   29.3804    0.0000 </r>
       <r>   31.2970    0.0000 </r>
       <r>   32.2017    0.0000 </r>
       <r>   34.3012    0.0000 </r>
       <r>   35.0628    0.0000 </r>
       <r>   36.3314    0.0000 </r>
       <r>   40.5336    0.0000 </r>
       <r>   41.2564    0.0000 </r>
       <r>   42.7391    0.0000 </r>
       <r>   45.7503    0.0000 </r>
       <r>   46.6354    0.0000 </r>
       <r>   48.8424    0.0000 </r>
       <r>   52.2402    0.0000 </r>
       <r>   53.6393    0.0000 </r>
       <r>   54.8813    0.0000 </r>
       <r>   55.2855    0.0000 </r>
       <r>   57.1999    0.0000 </r>
       <r>   58.0968    0.0000 </r>
       <r>   58.1061    0.0000 </r>
       <r>   59.5511    0.0000 </r>
       <r>   59.9728    0.0000 </r>
       <r>   62.5340    0.0000 </r>
       <r>   64.8423    0.0000 </r>
       <r>   65.2989    0.0000 </r>
       <r>   66.7160    0.0000 </r>
      </set>
      <set comment="kpoint 9">
       <r>    1.6849    1.0000 </r>
       <r>    3.1911    1.0000 </r>
       <r>    3.2389    1.0000 </r>
       <r>    4.5174    1.0000 </r>
       <r>    5.1272    1.0000 </r>
       <r>    5.4130    1.0000 </r>
       <r>    6.1243    1.0000 </r>
       <r>    6.6180    1.0014 </r>
       <r>    7.6719   -0.0003 </r>
       <r>    7.8215   -0.0000 </r>
       <r>    8.1340   -0.0000 </r>
       <r>   14.0629    0.0000 </r>
       <r>   14.7880    0.0000 </r>
       <r>   20.3172    0.0000 </r>
       <r>   25.1170    0.0000 </r>
       <r>   25.8425    0.0000 </r>
       <r>   28.6919    0.0000 </r>
       <r>   30.3919    0.0000 </r>
       <r>   34.3366    0.0000 </r>
       <r>   35.7880    0.0000 </r>
       <r>   35.8001    0.0000 </r>
       <r>   39.6632    0.0000 </r>
       <r>   40.4721    0.0000 </r>
       <r>   43.5490    0.0000 </r>
       <r>   47.6745    0.0000 </r>
       <r>   49.9567    0.0000 </r>
       <r>   51.0391    0.0000 </r>
       <r>   51.0622    0.0000 </r>
       <r>   53.8428    0.0000 </r>
       <r>   55.7041    0.0000 </r>
       <r>   56.1405    0.0000 </r>
       <r>   58.9836    0.0000 </r>
       <r>   60.0509    0.0000 </r>
       <r>   60.3046    0.0000 </r>
       <r>   61.6570    0.0000 </r>
       <r>   63.5121    0.0000 </r>
       <r>   64.7975    0.0000 </r>
       <r>   65.5050    0.0000 </r>
       <r>   65.5355    0.0000 </r>
       <r>   66.2384    0.0000 </r>
      </set>
      <set comment="kpoint 10">
       <r>    2.4905    1.0000 </r>
       <r>    2.8605    1.0000 </r>
       <r>    2.9197    1.0000 </r>
       <r>    4.9492    1.0000 </r>
       <r>    5.1020    1.0000 </r>
       <r>    5.5796    1.0000 </r>
       <r>    5.8257    1.0000 </r>
       <r>    7.6370   -0.0006 </r>
       <r>    7.7862   -0.0000 </r>
       <r>    8.2132   -0.0000 </r>
       <r>    9.3818   -0.0000 </r>
       <r>   14.3724    0.0000 </r>
       <r>   16.3078    0.0000 </r>
       <r>   18.4663    0.0000 </r>
       <r>   22.7413    0.0000 </r>
       <r>   23.6781    0.0000 </r>
       <r>   25.4159    0.0000 </r>
       <r>   29.5267    0.0000 </r>
       <r>   33.4623    0.0000 </r>
       <r>   35.3448    0.0000 </r>
       <r>   37.6820    0.0000 </r>
       <r>   39.8846    0.0000 </r>
       <r>   40.7133    0.0000 </r>
       <r>   42.6211    0.0000 </r>
       <r>   47.0701    0.0000 </r>
       <r>   50.2031    0.0000 </r>
       <r>   51.3422    0.0000 </r>
       <r>   53.3464    0.0000 </r>
       <r>   55.2819    0.0000 </r>
       <r>   57.1900    0.0000 </r>
       <r>   58.7914    0.0000 </r>
       <r>   60.3659    0.0000 </r>
       <r>   61.0934    0.0000 </r>
       <r>   63.1546    0.0000 </r>
       <r>   63.2768    0.0000 </r>
       <r>   64.7906    0.0000 </r>
       <r>   64.7943    0.0000 </r>
       <r>   66.3599    0.0000 </r>
       <r>   66.4309    0.0000 </r>
       <r>   68.1170    0.0000 </r>
      </set>
      <set comment="kpoint 11">
       <r>    2.5960    1.0000 </r>
       <r>    2.7612    1.0000 </r>
       <r>    2.8174    1.0000 </r>
       <r>    4.9880    1.0000 </r>
       <r>    5.4340    1.0000 </r>
       <r>    5.6421    1.0000 </r>
       <r>    5.7126    1.0000 </r>
       <r>    7.7706   -0.0000 </r>
       <r>    8.2339   -0.0000 </r>
       <r>    8.2648   -0.0000 </r>
       <r>   10.6293   -0.0000 </r>
       <r>   12.7985    0.0000 </r>
       <r>   17.8504    0.0000 </r>
       <r>   19.0410    0.0000 </r>
       <r>   20.9069    0.0000 </r>
       <r>   22.5206    0.0000 </r>
       <r>   24.1670    0.0000 </r>
       <r>   29.2123    0.0000 </r>
       <r>   33.0774    0.0000 </r>
       <r>   35.1858    0.0000 </r>
       <r>   38.2142    0.0000 </r>
       <r>   40.5301    0.0000 </r>
       <r>   41.5478    0.0000 </r>
       <r>   41.9844    0.0000 </r>
       <r>   44.8687    0.0000 </r>
       <r>   51.1270    0.0000 </r>
       <r>   51.3754    0.0000 </r>
       <r>   53.5892    0.0000 </r>
       <r>   57.8363    0.0000 </r>
       <r>   58.1031    0.0000 </r>
       <r>   60.7543    0.0000 </r>
       <r>   61.2917    0.0000 </r>
       <r>   61.3772    0.0000 </r>
       <r>   61.6508    0.0000 </r>
       <r>   62.4243    0.0000 </r>
       <r>   65.0596    0.0000 </r>
       <r>   66.8073    0.0000 </r>
       <r>   66.8418    0.0000 </r>
       <r>   66.8690    0.0000 </r>
       <r>   67.7430    0.0000 </r>
      </set>
      <set comment="kpoint 12">
       <r>    1.6043    1.0000 </r>
       <r>    3.3768    1.0000 </r>
       <r>    3.7821    1.0000 </r>
       <r>    3.9529    1.0000 </r>
       <r>    5.0837    1.0000 </r>
       <r>    5.3858    1.0000 </r>
       <r>    6.0181    1.0000 </r>
       <r>    6.2289    1.0000 </r>
       <r>    7.6429   -0.0005 </r>
       <r>    7.7062   -0.0001 </r>
       <r>    8.2126   -0.0000 </r>
       <r>   13.8082    0.0000 </r>
       <r>   14.8996    0.0000 </r>
       <r>   22.1449    0.0000 </r>
       <r>   22.9186    0.0000 </r>
       <r>   27.4957    0.0000 </r>
       <r>   28.8111    0.0000 </r>
       <r>   31.0999    0.0000 </r>
       <r>   31.5944    0.0000 </r>
       <r>   35.1496    0.0000 </r>
       <r>   37.7808    0.0000 </r>
       <r>   41.8168    0.0000 </r>
       <r>   42.7271    0.0000 </r>
       <r>   44.5928    0.0000 </r>
       <r>   45.5970    0.0000 </r>
       <r>   47.4630    0.0000 </r>
       <r>   48.1820    0.0000 </r>
       <r>   52.1048    0.0000 </r>
       <r>   54.5263    0.0000 </r>
       <r>   54.7437    0.0000 </r>
       <r>   55.1360    0.0000 </r>
       <r>   59.4011    0.0000 </r>
       <r>   59.7958    0.0000 </r>
       <r>   62.3521    0.0000 </r>
       <r>   62.5433    0.0000 </r>
       <r>   62.6935    0.0000 </r>
       <r>   62.9514    0.0000 </r>
       <r>   65.4816    0.0000 </r>
       <r>   65.9082    0.0000 </r>
       <r>   66.8228    0.0000 </r>
      </set>
      <set comment="kpoint 13">
       <r>    2.8230    1.0000 </r>
       <r>    3.1358    1.0000 </r>
       <r>    3.4432    1.0000 </r>
       <r>    4.2173    1.0000 </r>
       <r>    5.0841    1.0000 </r>
       <r>    5.3984    1.0000 </r>
       <r>    5.7953    1.0000 </r>
       <r>    6.6437    1.0024 </r>
       <r>    7.5739   -0.0024 </r>
       <r>    8.1181   -0.0000 </r>
       <r>    9.5669   -0.0000 </r>
       <r>   15.6955    0.0000 </r>
       <r>   15.9803    0.0000 </r>
       <r>   19.0468    0.0000 </r>
       <r>   21.2542    0.0000 </r>
       <r>   24.7209    0.0000 </r>
       <r>   27.2163    0.0000 </r>
       <r>   27.4552    0.0000 </r>
       <r>   30.3427    0.0000 </r>
       <r>   37.4808    0.0000 </r>
       <r>   38.2480    0.0000 </r>
       <r>   41.6906    0.0000 </r>
       <r>   43.9133    0.0000 </r>
       <r>   45.6172    0.0000 </r>
       <r>   46.1943    0.0000 </r>
       <r>   48.2831    0.0000 </r>
       <r>   49.4238    0.0000 </r>
       <r>   50.2405    0.0000 </r>
       <r>   53.6187    0.0000 </r>
       <r>   54.9314    0.0000 </r>
       <r>   57.7791    0.0000 </r>
       <r>   60.6223    0.0000 </r>
       <r>   61.5932    0.0000 </r>
       <r>   63.0379    0.0000 </r>
       <r>   64.7526    0.0000 </r>
       <r>   64.7794    0.0000 </r>
       <r>   66.0122    0.0000 </r>
       <r>   66.1575    0.0000 </r>
       <r>   67.5010    0.0000 </r>
       <r>   67.9047    0.0000 </r>
      </set>
      <set comment="kpoint 14">
       <r>    3.0434    1.0000 </r>
       <r>    3.1300    1.0000 </r>
       <r>    3.2740    1.0000 </r>
       <r>    4.7798    1.0000 </r>
       <r>    5.0002    1.0000 </r>
       <r>    5.4178    1.0000 </r>
       <r>    5.6944    1.0000 </r>
       <r>    7.4198   -0.0251 </r>
       <r>    7.4996   -0.0092 </r>
       <r>    8.0729   -0.0000 </r>
       <r>   11.2325   -0.0000 </r>
       <r>   14.3063    0.0000 </r>
       <r>   18.2323    0.0000 </r>
       <r>   19.1211    0.0000 </r>
       <r>   20.3067    0.0000 </r>
       <r>   21.9587    0.0000 </r>
       <r>   24.4013    0.0000 </r>
       <r>   26.6260    0.0000 </r>
       <r>   29.7006    0.0000 </r>
       <r>   38.3951    0.0000 </r>
       <r>   39.9148    0.0000 </r>
       <r>   41.7625    0.0000 </r>
       <r>   42.8440    0.0000 </r>
       <r>   44.0837    0.0000 </r>
       <r>   47.6577    0.0000 </r>
       <r>   48.5706    0.0000 </r>
       <r>   49.9667    0.0000 </r>
       <r>   51.6146    0.0000 </r>
       <r>   55.1023    0.0000 </r>
       <r>   56.4803    0.0000 </r>
       <r>   57.5537    0.0000 </r>
       <r>   60.3524    0.0000 </r>
       <r>   61.2466    0.0000 </r>
       <r>   61.6149    0.0000 </r>
       <r>   65.5854    0.0000 </r>
       <r>   66.1580    0.0000 </r>
       <r>   67.2148    0.0000 </r>
       <r>   67.3982    0.0000 </r>
       <r>   67.4992    0.0000 </r>
       <r>   68.0912    0.0000 </r>
      </set>
      <set comment="kpoint 15">
       <r>    3.2013    1.0000 </r>
       <r>    3.5952    1.0000 </r>
       <r>    3.9056    1.0000 </r>
       <r>    3.9459    1.0000 </r>
       <r>    4.9218    1.0000 </r>
       <r>    5.3389    1.0000 </r>
       <r>    5.7085    1.0000 </r>
       <r>    6.9213    1.0173 </r>
       <r>    7.3576   -0.0354 </r>
       <r>    8.0252   -0.0000 </r>
       <r>   11.3857   -0.0000 </r>
       <r>   16.4154    0.0000 </r>
       <r>   17.1558    0.0000 </r>
       <r>   18.2700    0.0000 </r>
       <r>   19.7907    0.0000 </r>
       <r>   24.0796    0.0000 </r>
       <r>   24.0849    0.0000 </r>
       <r>   26.2217    0.0000 </r>
       <r>   27.0253    0.0000 </r>
       <r>   39.3120    0.0000 </r>
       <r>   40.0989    0.0000 </r>
       <r>   44.7257    0.0000 </r>
       <r>   45.3713    0.0000 </r>
       <r>   45.5688    0.0000 </r>
       <r>   46.0877    0.0000 </r>
       <r>   46.6668    0.0000 </r>
       <r>   49.2713    0.0000 </r>
       <r>   51.7184    0.0000 </r>
       <r>   51.9380    0.0000 </r>
       <r>   56.5662    0.0000 </r>
       <r>   56.8679    0.0000 </r>
       <r>   59.0879    0.0000 </r>
       <r>   61.1678    0.0000 </r>
       <r>   61.7626    0.0000 </r>
       <r>   65.8290    0.0000 </r>
       <r>   66.5986    0.0000 </r>
       <r>   66.8409    0.0000 </r>
       <r>   67.4715    0.0000 </r>
       <r>   67.5705    0.0000 </r>
       <r>   69.4453    0.0000 </r>
      </set>
      <set comment="kpoint 16">
       <r>    3.2717    1.0000 </r>
       <r>    3.7095    1.0000 </r>
       <r>    3.8032    1.0000 </r>
       <r>    4.3161    1.0000 </r>
       <r>    4.9805    1.0000 </r>
       <r>    5.0026    1.0000 </r>
       <r>    5.8512    1.0000 </r>
       <r>    7.2725    0.0054 </r>
       <r>    7.3264   -0.0320 </r>
       <r>    7.6597   -0.0003 </r>
       <r>   13.2124    0.0000 </r>
       <r>   14.5268    0.0000 </r>
       <r>   16.7650    0.0000 </r>
       <r>   20.2762    0.0000 </r>
       <r>   20.7436    0.0000 </r>
       <r>   21.7776    0.0000 </r>
       <r>   23.8677    0.0000 </r>
       <r>   24.4166    0.0000 </r>
       <r>   26.4308    0.0000 </r>
       <r>   39.6743    0.0000 </r>
       <r>   42.7995    0.0000 </r>
       <r>   43.2614    0.0000 </r>
       <r>   44.8048    0.0000 </r>
       <r>   44.8573    0.0000 </r>
       <r>   46.4378    0.0000 </r>
       <r>   47.8471    0.0000 </r>
       <r>   51.1607    0.0000 </r>
       <r>   52.0601    0.0000 </r>
       <r>   52.2186    0.0000 </r>
       <r>   55.5552    0.0000 </r>
       <r>   56.6629    0.0000 </r>
       <r>   57.2837    0.0000 </r>
       <r>   60.3882    0.0000 </r>
       <r>   60.8238    0.0000 </r>
       <r>   65.7522    0.0000 </r>
       <r>   66.9087    0.0000 </r>
       <r>   67.4951    0.0000 </r>
       <r>   67.6542    0.0000 </r>
       <r>   68.4531    0.0000 </r>
       <r>   69.1288    0.0000 </r>
      </set>
      <set comment="kpoint 17">
       <r>   -1.8195    1.0000 </r>
       <r>    1.8911    1.0000 </r>
       <r>    4.5831    1.0000 </r>
       <r>    5.4901    1.0000 </r>
       <r>    5.4902    1.0000 </r>
       <r>    5.7465    1.0000 </r>
       <r>    5.7466    1.0000 </r>
       <r>    5.7839    1.0000 </r>
       <r>    6.9778    0.9430 </r>
       <r>    6.9779    0.9430 </r>
       <r>    7.8671   -0.0000 </r>
       <r>    7.8672   -0.0000 </r>
       <r>   14.3510    0.0000 </r>
       <r>   28.8507    0.0000 </r>
       <r>   31.3040    0.0000 </r>
       <r>   33.8407    0.0000 </r>
       <r>   36.8945    0.0000 </r>
       <r>   36.9444    0.0000 </r>
       <r>   36.9445    0.0000 </r>
       <r>   37.6671    0.0000 </r>
       <r>   37.6673    0.0000 </r>
       <r>   40.0528    0.0000 </r>
       <r>   40.0528    0.0000 </r>
       <r>   41.3049    0.0000 </r>
       <r>   43.3036    0.0000 </r>
       <r>   43.3036    0.0000 </r>
       <r>   44.0611    0.0000 </r>
       <r>   47.8532    0.0000 </r>
       <r>   47.8535    0.0000 </r>
       <r>   49.8628    0.0000 </r>
       <r>   49.8629    0.0000 </r>
       <r>   51.2615    0.0000 </r>
       <r>   58.0684    0.0000 </r>
       <r>   61.5458    0.0000 </r>
       <r>   61.5466    0.0000 </r>
       <r>   61.7616    0.0000 </r>
       <r>   62.1538    0.0000 </r>
       <r>   62.1541    0.0000 </r>
       <r>   62.4310    0.0000 </r>
       <r>   63.4143    0.0000 </r>
      </set>
      <set comment="kpoint 18">
       <r>   -1.4772    1.0000 </r>
       <r>    2.1642    1.0000 </r>
       <r>    4.6610    1.0000 </r>
       <r>    5.1357    1.0000 </r>
       <r>    5.3607    1.0000 </r>
       <r>    5.6447    1.0000 </r>
       <r>    5.6921    1.0000 </r>
       <r>    5.9395    1.0000 </r>
       <r>    6.7998    1.0256 </r>
       <r>    6.8710    1.0353 </r>
       <r>    7.8890   -0.0000 </r>
       <r>    8.7288   -0.0000 </r>
       <r>   14.4146    0.0000 </r>
       <r>   29.2109    0.0000 </r>
       <r>   30.0910    0.0000 </r>
       <r>   32.4725    0.0000 </r>
       <r>   34.0863    0.0000 </r>
       <r>   35.3356    0.0000 </r>
       <r>   36.5145    0.0000 </r>
       <r>   36.8503    0.0000 </r>
       <r>   39.1547    0.0000 </r>
       <r>   39.9715    0.0000 </r>
       <r>   40.7514    0.0000 </r>
       <r>   41.4452    0.0000 </r>
       <r>   44.5856    0.0000 </r>
       <r>   44.6708    0.0000 </r>
       <r>   45.7457    0.0000 </r>
       <r>   45.8531    0.0000 </r>
       <r>   48.5499    0.0000 </r>
       <r>   50.9082    0.0000 </r>
       <r>   52.2232    0.0000 </r>
       <r>   53.4836    0.0000 </r>
       <r>   56.8478    0.0000 </r>
       <r>   59.8978    0.0000 </r>
       <r>   60.5098    0.0000 </r>
       <r>   61.1143    0.0000 </r>
       <r>   61.7403    0.0000 </r>
       <r>   62.5879    0.0000 </r>
       <r>   63.4032    0.0000 </r>
       <r>   64.8781    0.0000 </r>
      </set>
      <set comment="kpoint 19">
       <r>   -0.5134    1.0000 </r>
       <r>    2.8107    1.0000 </r>
       <r>    4.2174    1.0000 </r>
       <r>    4.6569    1.0000 </r>
       <r>    5.0870    1.0000 </r>
       <r>    5.6289    1.0000 </r>
       <r>    6.2447    1.0000 </r>
       <r>    6.4112    1.0000 </r>
       <r>    6.4575    1.0000 </r>
       <r>    6.6460    1.0026 </r>
       <r>    7.9154   -0.0000 </r>
       <r>   10.2882   -0.0000 </r>
       <r>   14.6635    0.0000 </r>
       <r>   26.2083    0.0000 </r>
       <r>   30.0613    0.0000 </r>
       <r>   30.9932    0.0000 </r>
       <r>   31.2115    0.0000 </r>
       <r>   31.8080    0.0000 </r>
       <r>   35.5448    0.0000 </r>
       <r>   37.3776    0.0000 </r>
       <r>   37.5873    0.0000 </r>
       <r>   37.9498    0.0000 </r>
       <r>   41.7177    0.0000 </r>
       <r>   42.2683    0.0000 </r>
       <r>   45.5109    0.0000 </r>
       <r>   46.3027    0.0000 </r>
       <r>   47.5082    0.0000 </r>
       <r>   49.8475    0.0000 </r>
       <r>   51.1136    0.0000 </r>
       <r>   53.9797    0.0000 </r>
       <r>   54.9869    0.0000 </r>
       <r>   55.5598    0.0000 </r>
       <r>   56.6483    0.0000 </r>
       <r>   58.1962    0.0000 </r>
       <r>   58.4687    0.0000 </r>
       <r>   60.3263    0.0000 </r>
       <r>   61.9998    0.0000 </r>
       <r>   63.5897    0.0000 </r>
       <r>   64.2261    0.0000 </r>
       <r>   66.4576    0.0000 </r>
      </set>
      <set comment="kpoint 20">
       <r>    0.8323    1.0000 </r>
       <r>    3.1032    1.0000 </r>
       <r>    3.5054    1.0000 </r>
       <r>    4.6536    1.0000 </r>
       <r>    4.9117    1.0000 </r>
       <r>    5.7900    1.0000 </r>
       <r>    6.2913    1.0000 </r>
       <r>    6.5036    1.0001 </r>
       <r>    7.0857    0.5968 </r>
       <r>    7.2281    0.0815 </r>
       <r>    7.9185   -0.0000 </r>
       <r>   11.9624   -0.0000 </r>
       <r>   15.2512    0.0000 </r>
       <r>   22.0995    0.0000 </r>
       <r>   27.0946    0.0000 </r>
       <r>   28.7557    0.0000 </r>
       <r>   29.5482    0.0000 </r>
       <r>   31.5297    0.0000 </r>
       <r>   34.0485    0.0000 </r>
       <r>   36.0005    0.0000 </r>
       <r>   36.7343    0.0000 </r>
       <r>   38.4161    0.0000 </r>
       <r>   39.7070    0.0000 </r>
       <r>   42.4037    0.0000 </r>
       <r>   49.1144    0.0000 </r>
       <r>   49.2292    0.0000 </r>
       <r>   50.5267    0.0000 </r>
       <r>   50.9350    0.0000 </r>
       <r>   53.6648    0.0000 </r>
       <r>   54.7463    0.0000 </r>
       <r>   55.7476    0.0000 </r>
       <r>   57.2393    0.0000 </r>
       <r>   57.6037    0.0000 </r>
       <r>   58.7150    0.0000 </r>
       <r>   60.6253    0.0000 </r>
       <r>   61.8667    0.0000 </r>
       <r>   63.8039    0.0000 </r>
       <r>   64.4168    0.0000 </r>
       <r>   64.5542    0.0000 </r>
       <r>   67.2099    0.0000 </r>
      </set>
      <set comment="kpoint 21">
       <r>    1.9572    1.0000 </r>
       <r>    2.7814    1.0000 </r>
       <r>    3.1027    1.0000 </r>
       <r>    4.5552    1.0000 </r>
       <r>    5.4201    1.0000 </r>
       <r>    5.6554    1.0000 </r>
       <r>    6.0519    1.0000 </r>
       <r>    7.7400   -0.0000 </r>
       <r>    7.8327   -0.0000 </r>
       <r>    7.9070   -0.0000 </r>
       <r>    8.0301   -0.0000 </r>
       <r>   13.3531    0.0000 </r>
       <r>   16.1148    0.0000 </r>
       <r>   18.9726    0.0000 </r>
       <r>   23.7052    0.0000 </r>
       <r>   26.6510    0.0000 </r>
       <r>   26.8844    0.0000 </r>
       <r>   31.2431    0.0000 </r>
       <r>   33.3565    0.0000 </r>
       <r>   35.4496    0.0000 </r>
       <r>   36.5054    0.0000 </r>
       <r>   38.4138    0.0000 </r>
       <r>   39.6912    0.0000 </r>
       <r>   42.2434    0.0000 </r>
       <r>   47.4105    0.0000 </r>
       <r>   51.7297    0.0000 </r>
       <r>   51.8128    0.0000 </r>
       <r>   54.4600    0.0000 </r>
       <r>   54.4904    0.0000 </r>
       <r>   56.7204    0.0000 </r>
       <r>   57.0106    0.0000 </r>
       <r>   58.9810    0.0000 </r>
       <r>   59.8939    0.0000 </r>
       <r>   60.3801    0.0000 </r>
       <r>   62.6529    0.0000 </r>
       <r>   63.8290    0.0000 </r>
       <r>   64.3846    0.0000 </r>
       <r>   64.3872    0.0000 </r>
       <r>   66.9165    0.0000 </r>
       <r>   67.4667    0.0000 </r>
      </set>
      <set comment="kpoint 22">
       <r>    2.3185    1.0000 </r>
       <r>    2.4822    1.0000 </r>
       <r>    2.9704    1.0000 </r>
       <r>    4.6159    1.0000 </r>
       <r>    5.5844    1.0000 </r>
       <r>    5.9141    1.0000 </r>
       <r>    6.0445    1.0000 </r>
       <r>    7.8543   -0.0000 </r>
       <r>    8.4099   -0.0000 </r>
       <r>    8.4957   -0.0000 </r>
       <r>    9.4536   -0.0000 </r>
       <r>   12.8078    0.0000 </r>
       <r>   16.9472    0.0000 </r>
       <r>   18.6320    0.0000 </r>
       <r>   21.4139    0.0000 </r>
       <r>   23.7786    0.0000 </r>
       <r>   25.8392    0.0000 </r>
       <r>   30.7246    0.0000 </r>
       <r>   33.1115    0.0000 </r>
       <r>   34.5721    0.0000 </r>
       <r>   37.8828    0.0000 </r>
       <r>   38.1052    0.0000 </r>
       <r>   39.9486    0.0000 </r>
       <r>   42.6135    0.0000 </r>
       <r>   45.0139    0.0000 </r>
       <r>   51.5059    0.0000 </r>
       <r>   52.0833    0.0000 </r>
       <r>   55.0681    0.0000 </r>
       <r>   57.8873    0.0000 </r>
       <r>   58.9550    0.0000 </r>
       <r>   59.9043    0.0000 </r>
       <r>   60.7794    0.0000 </r>
       <r>   60.8844    0.0000 </r>
       <r>   62.1256    0.0000 </r>
       <r>   63.6448    0.0000 </r>
       <r>   64.3682    0.0000 </r>
       <r>   65.5321    0.0000 </r>
       <r>   66.5521    0.0000 </r>
       <r>   67.5948    0.0000 </r>
       <r>   67.6078    0.0000 </r>
      </set>
      <set comment="kpoint 23">
       <r>   -0.8210    1.0000 </r>
       <r>    2.6462    1.0000 </r>
       <r>    4.4590    1.0000 </r>
       <r>    4.6617    1.0000 </r>
       <r>    5.2675    1.0000 </r>
       <r>    5.4017    1.0000 </r>
       <r>    6.1000    1.0000 </r>
       <r>    6.3155    1.0000 </r>
       <r>    6.4659    1.0000 </r>
       <r>    6.8043    1.0267 </r>
       <r>    7.8737   -0.0000 </r>
       <r>    9.8580   -0.0000 </r>
       <r>   14.5746    0.0000 </r>
       <r>   27.9620    0.0000 </r>
       <r>   29.2992    0.0000 </r>
       <r>   29.9952    0.0000 </r>
       <r>   32.6382    0.0000 </r>
       <r>   34.9448    0.0000 </r>
       <r>   35.2761    0.0000 </r>
       <r>   35.3675    0.0000 </r>
       <r>   37.0051    0.0000 </r>
       <r>   41.9343    0.0000 </r>
       <r>   42.0591    0.0000 </r>
       <r>   43.0957    0.0000 </r>
       <r>   43.2116    0.0000 </r>
       <r>   44.7725    0.0000 </r>
       <r>   45.0336    0.0000 </r>
       <r>   50.3675    0.0000 </r>
       <r>   51.7886    0.0000 </r>
       <r>   52.8424    0.0000 </r>
       <r>   53.0433    0.0000 </r>
       <r>   55.5990    0.0000 </r>
       <r>   56.1342    0.0000 </r>
       <r>   58.5493    0.0000 </r>
       <r>   59.2449    0.0000 </r>
       <r>   60.6042    0.0000 </r>
       <r>   61.4349    0.0000 </r>
       <r>   62.8007    0.0000 </r>
       <r>   64.5021    0.0000 </r>
       <r>   66.5132    0.0000 </r>
      </set>
      <set comment="kpoint 24">
       <r>    0.3644    1.0000 </r>
       <r>    3.2629    1.0000 </r>
       <r>    3.7514    1.0000 </r>
       <r>    4.4383    1.0000 </r>
       <r>    4.9983    1.0000 </r>
       <r>    5.5882    1.0000 </r>
       <r>    6.0813    1.0000 </r>
       <r>    6.4672    1.0000 </r>
       <r>    6.9125    1.0231 </r>
       <r>    7.1202    0.4515 </r>
       <r>    7.8451   -0.0000 </r>
       <r>   11.4132   -0.0000 </r>
       <r>   15.0303    0.0000 </r>
       <r>   24.2158    0.0000 </r>
       <r>   26.9055    0.0000 </r>
       <r>   29.0879    0.0000 </r>
       <r>   30.7105    0.0000 </r>
       <r>   32.5213    0.0000 </r>
       <r>   33.5276    0.0000 </r>
       <r>   35.6449    0.0000 </r>
       <r>   36.7681    0.0000 </r>
       <r>   40.7946    0.0000 </r>
       <r>   41.0684    0.0000 </r>
       <r>   43.2651    0.0000 </r>
       <r>   45.6217    0.0000 </r>
       <r>   46.5588    0.0000 </r>
       <r>   49.0043    0.0000 </r>
       <r>   51.3892    0.0000 </r>
       <r>   53.8121    0.0000 </r>
       <r>   54.3630    0.0000 </r>
       <r>   56.0167    0.0000 </r>
       <r>   57.2037    0.0000 </r>
       <r>   57.3883    0.0000 </r>
       <r>   58.7434    0.0000 </r>
       <r>   59.2135    0.0000 </r>
       <r>   60.5304    0.0000 </r>
       <r>   62.6390    0.0000 </r>
       <r>   63.8008    0.0000 </r>
       <r>   65.1025    0.0000 </r>
       <r>   66.6191    0.0000 </r>
      </set>
      <set comment="kpoint 25">
       <r>    1.7060    1.0000 </r>
       <r>    3.1337    1.0000 </r>
       <r>    3.2986    1.0000 </r>
       <r>    4.4780    1.0000 </r>
       <r>    5.0977    1.0000 </r>
       <r>    5.5104    1.0000 </r>
       <r>    6.1354    1.0000 </r>
       <r>    6.6355    1.0021 </r>
       <r>    7.6798   -0.0002 </r>
       <r>    7.7605   -0.0000 </r>
       <r>    8.1600   -0.0000 </r>
       <r>   13.0175    0.0000 </r>
       <r>   15.9324    0.0000 </r>
       <r>   20.3794    0.0000 </r>
       <r>   25.0828    0.0000 </r>
       <r>   25.6448    0.0000 </r>
       <r>   28.9500    0.0000 </r>
       <r>   30.2069    0.0000 </r>
       <r>   34.1421    0.0000 </r>
       <r>   34.9433    0.0000 </r>
       <r>   36.3277    0.0000 </r>
       <r>   40.0264    0.0000 </r>
       <r>   40.7366    0.0000 </r>
       <r>   43.9922    0.0000 </r>
       <r>   47.2275    0.0000 </r>
       <r>   48.7383    0.0000 </r>
       <r>   50.8724    0.0000 </r>
       <r>   52.4496    0.0000 </r>
       <r>   53.9470    0.0000 </r>
       <r>   55.1713    0.0000 </r>
       <r>   56.6373    0.0000 </r>
       <r>   58.9921    0.0000 </r>
       <r>   59.5833    0.0000 </r>
       <r>   60.7088    0.0000 </r>
       <r>   61.8652    0.0000 </r>
       <r>   63.3253    0.0000 </r>
       <r>   64.0409    0.0000 </r>
       <r>   65.0233    0.0000 </r>
       <r>   66.0969    0.0000 </r>
       <r>   66.5216    0.0000 </r>
      </set>
      <set comment="kpoint 26">
       <r>    2.4266    1.0000 </r>
       <r>    2.7809    1.0000 </r>
       <r>    3.1064    1.0000 </r>
       <r>    4.5607    1.0000 </r>
       <r>    5.4753    1.0000 </r>
       <r>    5.5979    1.0000 </r>
       <r>    5.9101    1.0000 </r>
       <r>    7.6233   -0.0008 </r>
       <r>    7.7290   -0.0001 </r>
       <r>    8.2240   -0.0000 </r>
       <r>    9.3647   -0.0000 </r>
       <r>   13.8436    0.0000 </r>
       <r>   16.6717    0.0000 </r>
       <r>   18.6793    0.0000 </r>
       <r>   22.4197    0.0000 </r>
       <r>   23.9157    0.0000 </r>
       <r>   25.7358    0.0000 </r>
       <r>   29.3231    0.0000 </r>
       <r>   33.6669    0.0000 </r>
       <r>   35.1454    0.0000 </r>
       <r>   36.8741    0.0000 </r>
       <r>   39.4005    0.0000 </r>
       <r>   41.7575    0.0000 </r>
       <r>   42.9398    0.0000 </r>
       <r>   46.7415    0.0000 </r>
       <r>   49.7969    0.0000 </r>
       <r>   51.5499    0.0000 </r>
       <r>   53.8394    0.0000 </r>
       <r>   55.6703    0.0000 </r>
       <r>   56.9146    0.0000 </r>
       <r>   58.6219    0.0000 </r>
       <r>   60.2338    0.0000 </r>
       <r>   61.0749    0.0000 </r>
       <r>   62.7477    0.0000 </r>
       <r>   63.9478    0.0000 </r>
       <r>   64.6154    0.0000 </r>
       <r>   65.0160    0.0000 </r>
       <r>   65.6915    0.0000 </r>
       <r>   66.7986    0.0000 </r>
       <r>   68.1951    0.0000 </r>
      </set>
      <set comment="kpoint 27">
       <r>    2.5325    1.0000 </r>
       <r>    2.6073    1.0000 </r>
       <r>    3.0891    1.0000 </r>
       <r>    4.6118    1.0000 </r>
       <r>    5.5404    1.0000 </r>
       <r>    5.8502    1.0000 </r>
       <r>    5.8710    1.0000 </r>
       <r>    7.7150   -0.0001 </r>
       <r>    8.2299   -0.0000 </r>
       <r>    8.2629   -0.0000 </r>
       <r>   10.5678   -0.0000 </r>
       <r>   12.7138    0.0000 </r>
       <r>   17.7349    0.0000 </r>
       <r>   18.6648    0.0000 </r>
       <r>   21.4369    0.0000 </r>
       <r>   22.7580    0.0000 </r>
       <r>   24.3247    0.0000 </r>
       <r>   29.0142    0.0000 </r>
       <r>   33.2766    0.0000 </r>
       <r>   35.1257    0.0000 </r>
       <r>   37.7884    0.0000 </r>
       <r>   38.9703    0.0000 </r>
       <r>   41.7941    0.0000 </r>
       <r>   43.7835    0.0000 </r>
       <r>   44.7674    0.0000 </r>
       <r>   50.1051    0.0000 </r>
       <r>   51.9187    0.0000 </r>
       <r>   54.3503    0.0000 </r>
       <r>   57.8834    0.0000 </r>
       <r>   58.0719    0.0000 </r>
       <r>   60.3818    0.0000 </r>
       <r>   60.8169    0.0000 </r>
       <r>   61.1102    0.0000 </r>
       <r>   62.2037    0.0000 </r>
       <r>   62.4872    0.0000 </r>
       <r>   65.7708    0.0000 </r>
       <r>   66.4891    0.0000 </r>
       <r>   66.9140    0.0000 </r>
       <r>   67.2521    0.0000 </r>
       <r>   67.6085    0.0000 </r>
      </set>
      <set comment="kpoint 28">
       <r>    1.6385    1.0000 </r>
       <r>    3.3349    1.0000 </r>
       <r>    3.8098    1.0000 </r>
       <r>    3.9703    1.0000 </r>
       <r>    5.0794    1.0000 </r>
       <r>    5.3179    1.0000 </r>
       <r>    6.1277    1.0000 </r>
       <r>    6.2106    1.0000 </r>
       <r>    7.6356   -0.0006 </r>
       <r>    7.6752   -0.0002 </r>
       <r>    8.2405   -0.0000 </r>
       <r>   12.9052    0.0000 </r>
       <r>   15.9153    0.0000 </r>
       <r>   22.2079    0.0000 </r>
       <r>   22.9910    0.0000 </r>
       <r>   27.2045    0.0000 </r>
       <r>   28.4436    0.0000 </r>
       <r>   31.5020    0.0000 </r>
       <r>   31.6900    0.0000 </r>
       <r>   34.4343    0.0000 </r>
       <r>   38.4786    0.0000 </r>
       <r>   42.2748    0.0000 </r>
       <r>   42.6675    0.0000 </r>
       <r>   44.3217    0.0000 </r>
       <r>   44.9108    0.0000 </r>
       <r>   48.0204    0.0000 </r>
       <r>   48.1433    0.0000 </r>
       <r>   52.2694    0.0000 </r>
       <r>   53.0602    0.0000 </r>
       <r>   55.0901    0.0000 </r>
       <r>   56.6163    0.0000 </r>
       <r>   59.4372    0.0000 </r>
       <r>   59.7836    0.0000 </r>
       <r>   61.6621    0.0000 </r>
       <r>   61.9311    0.0000 </r>
       <r>   63.3853    0.0000 </r>
       <r>   63.5284    0.0000 </r>
       <r>   64.6098    0.0000 </r>
       <r>   65.7159    0.0000 </r>
       <r>   65.8352    0.0000 </r>
      </set>
      <set comment="kpoint 29">
       <r>    2.7848    1.0000 </r>
       <r>    3.1575    1.0000 </r>
       <r>    3.4674    1.0000 </r>
       <r>    4.2077    1.0000 </r>
       <r>    5.1061    1.0000 </r>
       <r>    5.3959    1.0000 </r>
       <r>    5.8186    1.0000 </r>
       <r>    6.6775    1.0047 </r>
       <r>    7.5136   -0.0074 </r>
       <r>    8.1437   -0.0000 </r>
       <r>    9.5803   -0.0000 </r>
       <r>   14.5228    0.0000 </r>
       <r>   17.1954    0.0000 </r>
       <r>   19.1514    0.0000 </r>
       <r>   21.3185    0.0000 </r>
       <r>   24.3864    0.0000 </r>
       <r>   26.8662    0.0000 </r>
       <r>   27.8826    0.0000 </r>
       <r>   30.7393    0.0000 </r>
       <r>   36.0140    0.0000 </r>
       <r>   39.2318    0.0000 </r>
       <r>   42.0071    0.0000 </r>
       <r>   43.3571    0.0000 </r>
       <r>   45.8324    0.0000 </r>
       <r>   46.1029    0.0000 </r>
       <r>   47.4141    0.0000 </r>
       <r>   50.3843    0.0000 </r>
       <r>   50.5957    0.0000 </r>
       <r>   53.3057    0.0000 </r>
       <r>   55.5915    0.0000 </r>
       <r>   57.8797    0.0000 </r>
       <r>   60.6333    0.0000 </r>
       <r>   61.5210    0.0000 </r>
       <r>   62.9552    0.0000 </r>
       <r>   64.5731    0.0000 </r>
       <r>   64.8862    0.0000 </r>
       <r>   65.0606    0.0000 </r>
       <r>   66.3905    0.0000 </r>
       <r>   66.8911    0.0000 </r>
       <r>   67.6525    0.0000 </r>
      </set>
      <set comment="kpoint 30">
       <r>    2.9150    1.0000 </r>
       <r>    3.1549    1.0000 </r>
       <r>    3.4399    1.0000 </r>
       <r>    4.4955    1.0000 </r>
       <r>    5.2379    1.0000 </r>
       <r>    5.3352    1.0000 </r>
       <r>    5.8335    1.0000 </r>
       <r>    7.4248   -0.0240 </r>
       <r>    7.4377   -0.0210 </r>
       <r>    8.0886   -0.0000 </r>
       <r>   11.2454   -0.0000 </r>
       <r>   14.1926    0.0000 </r>
       <r>   17.8310    0.0000 </r>
       <r>   19.4858    0.0000 </r>
       <r>   20.2570    0.0000 </r>
       <r>   22.0944    0.0000 </r>
       <r>   24.7867    0.0000 </r>
       <r>   26.2687    0.0000 </r>
       <r>   30.1601    0.0000 </r>
       <r>   37.5277    0.0000 </r>
       <r>   39.5240    0.0000 </r>
       <r>   41.1204    0.0000 </r>
       <r>   43.6489    0.0000 </r>
       <r>   44.8826    0.0000 </r>
       <r>   47.3837    0.0000 </r>
       <r>   47.5746    0.0000 </r>
       <r>   50.9944    0.0000 </r>
       <r>   52.2451    0.0000 </r>
       <r>   55.3350    0.0000 </r>
       <r>   56.2883    0.0000 </r>
       <r>   57.6456    0.0000 </r>
       <r>   60.3754    0.0000 </r>
       <r>   60.8372    0.0000 </r>
       <r>   62.0127    0.0000 </r>
       <r>   64.7360    0.0000 </r>
       <r>   66.0144    0.0000 </r>
       <r>   66.8113    0.0000 </r>
       <r>   67.1893    0.0000 </r>
       <r>   67.4855    0.0000 </r>
       <r>   68.2414    0.0000 </r>
      </set>
      <set comment="kpoint 31">
       <r>    3.1919    1.0000 </r>
       <r>    3.6078    1.0000 </r>
       <r>    3.8495    1.0000 </r>
       <r>    3.9950    1.0000 </r>
       <r>    4.9763    1.0000 </r>
       <r>    5.2543    1.0000 </r>
       <r>    5.7502    1.0000 </r>
       <r>    6.9633    0.9690 </r>
       <r>    7.2918   -0.0140 </r>
       <r>    8.0496   -0.0000 </r>
       <r>   11.4197   -0.0000 </r>
       <r>   15.9791    0.0000 </r>
       <r>   17.2235    0.0000 </r>
       <r>   18.4173    0.0000 </r>
       <r>   20.1217    0.0000 </r>
       <r>   23.6983    0.0000 </r>
       <r>   23.7467    0.0000 </r>
       <r>   26.7652    0.0000 </r>
       <r>   27.4834    0.0000 </r>
       <r>   37.7253    0.0000 </r>
       <r>   41.0428    0.0000 </r>
       <r>   43.8403    0.0000 </r>
       <r>   43.9402    0.0000 </r>
       <r>   46.4081    0.0000 </r>
       <r>   46.6888    0.0000 </r>
       <r>   47.4439    0.0000 </r>
       <r>   50.0374    0.0000 </r>
       <r>   51.5267    0.0000 </r>
       <r>   51.8663    0.0000 </r>
       <r>   56.8568    0.0000 </r>
       <r>   56.9585    0.0000 </r>
       <r>   59.1818    0.0000 </r>
       <r>   60.7527    0.0000 </r>
       <r>   62.1153    0.0000 </r>
       <r>   65.7451    0.0000 </r>
       <r>   66.4440    0.0000 </r>
       <r>   66.5553    0.0000 </r>
       <r>   67.4879    0.0000 </r>
       <r>   67.6959    0.0000 </r>
       <r>   68.5918    0.0000 </r>
      </set>
      <set comment="kpoint 32">
       <r>    3.2687    1.0000 </r>
       <r>    3.7274    1.0000 </r>
       <r>    3.8434    1.0000 </r>
       <r>    4.2533    1.0000 </r>
       <r>    4.9640    1.0000 </r>
       <r>    5.0044    1.0000 </r>
       <r>    5.8773    1.0000 </r>
       <r>    7.2059    0.1378 </r>
       <r>    7.3580   -0.0354 </r>
       <r>    7.6905   -0.0002 </r>
       <r>   13.2772    0.0000 </r>
       <r>   14.5175    0.0000 </r>
       <r>   16.7628    0.0000 </r>
       <r>   20.0944    0.0000 </r>
       <r>   20.0962    0.0000 </r>
       <r>   22.2791    0.0000 </r>
       <r>   23.7224    0.0000 </r>
       <r>   24.7992    0.0000 </r>
       <r>   26.9379    0.0000 </r>
       <r>   38.6621    0.0000 </r>
       <r>   41.4635    0.0000 </r>
       <r>   43.5420    0.0000 </r>
       <r>   44.0350    0.0000 </r>
       <r>   46.1656    0.0000 </r>
       <r>   47.0196    0.0000 </r>
       <r>   48.8338    0.0000 </r>
       <r>   50.8493    0.0000 </r>
       <r>   52.2682    0.0000 </r>
       <r>   52.4409    0.0000 </r>
       <r>   55.3412    0.0000 </r>
       <r>   56.4968    0.0000 </r>
       <r>   57.5369    0.0000 </r>
       <r>   60.5144    0.0000 </r>
       <r>   60.8963    0.0000 </r>
       <r>   65.6495    0.0000 </r>
       <r>   66.8116    0.0000 </r>
       <r>   67.2630    0.0000 </r>
       <r>   67.7366    0.0000 </r>
       <r>   68.2727    0.0000 </r>
       <r>   69.1645    0.0000 </r>
      </set>
      <set comment="kpoint 33">
       <r>   -1.5938    1.0000 </r>
       <r>    1.7561    1.0000 </r>
       <r>    4.5334    1.0000 </r>
       <r>    5.3286    1.0000 </r>
       <r>    5.4816    1.0000 </r>
       <r>    5.4816    1.0000 </r>
       <r>    5.7109    1.0000 </r>
       <r>    5.7110    1.0000 </r>
       <r>    7.0591    0.7031 </r>
       <r>    7.0591    0.7030 </r>
       <r>    7.8347   -0.0000 </r>
       <r>    7.8348   -0.0000 </r>
       <r>   15.3034    0.0000 </r>
[...]
       <r>   22.3382    0.0000 </r>
       <r>   23.0432    0.0000 </r>
       <r>   26.5417    0.0000 </r>
       <r>   27.5950    0.0000 </r>
       <r>   32.3301    0.0000 </r>
       <r>   33.3526    0.0000 </r>
       <r>   35.9824    0.0000 </r>
       <r>   37.5112    0.0000 </r>
       <r>   42.9252    0.0000 </r>
       <r>   43.3242    0.0000 </r>
       <r>   52.2077    0.0000 </r>
       <r>   53.1310    0.0000 </r>
       <r>   53.4636    0.0000 </r>
       <r>   54.4299    0.0000 </r>
       <r>   56.2419    0.0000 </r>
       <r>   57.7543    0.0000 </r>
       <r>   57.8927    0.0000 </r>
       <r>   58.5885    0.0000 </r>
       <r>   60.4345    0.0000 </r>
       <r>   61.0774    0.0000 </r>
       <r>   63.0050    0.0000 </r>
       <r>   63.9256    0.0000 </r>
       <r>   65.7080    0.0000 </r>
       <r>   65.9012    0.0000 </r>
       <r>   66.6279    0.0000 </r>
       <r>   67.0237    0.0000 </r>
      </set>
      <set comment="kpoint 95">
       <r>    3.2026    1.0000 </r>
       <r>    3.2656    1.0000 </r>
       <r>    4.1543    1.0000 </r>
       <r>    4.3583    1.0000 </r>
       <r>    4.8031    1.0000 </r>
       <r>    4.9925    1.0000 </r>
       <r>    6.1538    1.0000 </r>
       <r>    6.3449    1.0000 </r>
       <r>    7.8645   -0.0000 </r>
       <r>    8.0603   -0.0000 </r>
       <r>   12.2630   -0.0000 </r>
       <r>   12.7574    0.0000 </r>
       <r>   18.6284    0.0000 </r>
       <r>   19.0354    0.0000 </r>
       <r>   20.3886    0.0000 </r>
       <r>   20.7772    0.0000 </r>
       <r>   26.7215    0.0000 </r>
       <r>   28.2390    0.0000 </r>
       <r>   32.4520    0.0000 </r>
       <r>   33.7547    0.0000 </r>
       <r>   35.5751    0.0000 </r>
       <r>   36.6279    0.0000 </r>
       <r>   45.5889    0.0000 </r>
       <r>   46.0229    0.0000 </r>
       <r>   49.6479    0.0000 </r>
       <r>   49.7335    0.0000 </r>
       <r>   54.3461    0.0000 </r>
       <r>   56.4230    0.0000 </r>
       <r>   56.5511    0.0000 </r>
       <r>   57.2895    0.0000 </r>
       <r>   59.2323    0.0000 </r>
       <r>   59.2494    0.0000 </r>
       <r>   59.7804    0.0000 </r>
       <r>   59.9676    0.0000 </r>
       <r>   61.4247    0.0000 </r>
       <r>   61.9287    0.0000 </r>
       <r>   65.4332    0.0000 </r>
       <r>   65.8190    0.0000 </r>
       <r>   66.8396    0.0000 </r>
       <r>   66.9060    0.0000 </r>
      </set>
      <set comment="kpoint 96">
       <r>    3.4221    1.0000 </r>
       <r>    3.5474    1.0000 </r>
       <r>    4.1202    1.0000 </r>
       <r>    4.2248    1.0000 </r>
       <r>    4.7617    1.0000 </r>
       <r>    4.9047    1.0000 </r>
       <r>    6.1849    1.0000 </r>
       <r>    6.3270    1.0000 </r>
       <r>    7.8525   -0.0000 </r>
       <r>    7.9215   -0.0000 </r>
       <r>   14.1434    0.0000 </r>
       <r>   14.2885    0.0000 </r>
       <r>   16.8767    0.0000 </r>
       <r>   17.1867    0.0000 </r>
       <r>   19.7319    0.0000 </r>
       <r>   20.1650    0.0000 </r>
       <r>   28.4810    0.0000 </r>
       <r>   29.1485    0.0000 </r>
       <r>   31.4132    0.0000 </r>
       <r>   31.7290    0.0000 </r>
       <r>   35.2539    0.0000 </r>
       <r>   36.0481    0.0000 </r>
       <r>   46.7332    0.0000 </r>
       <r>   47.3575    0.0000 </r>
       <r>   51.5001    0.0000 </r>
       <r>   51.9848    0.0000 </r>
       <r>   53.8920    0.0000 </r>
       <r>   54.3564    0.0000 </r>
       <r>   56.3141    0.0000 </r>
       <r>   56.6204    0.0000 </r>
       <r>   58.7347    0.0000 </r>
       <r>   59.1839    0.0000 </r>
       <r>   59.5128    0.0000 </r>
       <r>   59.9616    0.0000 </r>
       <r>   61.7787    0.0000 </r>
       <r>   62.8065    0.0000 </r>
       <r>   64.1848    0.0000 </r>
       <r>   64.3624    0.0000 </r>
       <r>   68.0880    0.0000 </r>
       <r>   68.2226    0.0000 </r>
      </set>
     </set>
    </set>
   </array>
  </eigenvalues>
  <separator name="orbital magnetization" >
   <v name="MAGDIPOLOUT">      0.00000000      0.00000000      0.00000000</v>
  </separator>
  <dos>
   <i name="efermi">      7.10874409 </i>
   <total>
    <array>
     <dimension dim="1">gridpoints</dimension>
     <dimension dim="2">spin</dimension>
     <field>energy</field>
     <field>total</field>
     <field>integrated</field>
     <set>
      <set comment="spin 1">
       <r>    -5.4628     0.0000     0.0000 </r>
       <r>    -5.2012     0.0000     0.0000 </r>
       <r>    -4.9396     0.0000     0.0000 </r>
       <r>    -4.6781     0.0000     0.0000 </r>
       <r>    -4.4165     0.0000     0.0000 </r>
       <r>    -4.1549     0.0000     0.0000 </r>
       <r>    -3.8933     0.0000     0.0000 </r>
       <r>    -3.6317    -0.0000    -0.0000 </r>
       <r>    -3.3701    -0.0000    -0.0000 </r>
       <r>    -3.1086    -0.0000    -0.0000 </r>
       <r>    -2.8470    -0.0000    -0.0000 </r>
       <r>    -2.5854    -0.0000    -0.0000 </r>
       <r>    -2.3238    -0.0000    -0.0000 </r>
       <r>    -2.0622    -0.0004    -0.0001 </r>
       <r>    -1.8006     0.0089     0.0022 </r>
       <r>    -1.5390     0.0515     0.0157 </r>
       <r>    -1.2775     0.1058     0.0434 </r>
       <r>    -1.0159     0.0555     0.0579 </r>
       <r>    -0.7543     0.1470     0.0964 </r>
       <r>    -0.4927     0.1757     0.1423 </r>
       <r>    -0.2311     0.2013     0.1950 </r>
       <r>     0.0305     0.0899     0.2185 </r>
       <r>     0.2920     0.2100     0.2734 </r>
       <r>     0.5536     0.3058     0.3534 </r>
       <r>     0.8152     0.3153     0.4359 </r>
       <r>     1.0768     0.3018     0.5148 </r>
       <r>     1.3384     0.2704     0.5856 </r>
       <r>     1.6000     0.3250     0.6706 </r>
       <r>     1.8615     0.7758     0.8735 </r>
       <r>     2.1231     1.1558     1.1759 </r>
       <r>     2.3847     1.7325     1.6291 </r>
       <r>     2.6463     2.0966     2.1775 </r>
       <r>     2.9079     2.7787     2.9044 </r>
       <r>     3.1695     2.4187     3.5371 </r>
       <r>     3.4310     2.6449     4.2289 </r>
       <r>     3.6926     2.6350     4.9182 </r>
       <r>     3.9542     3.1144     5.7329 </r>
       <r>     4.2158     3.3303     6.6040 </r>
       <r>     4.4774     2.8446     7.3482 </r>
       <r>     4.7390     2.3210     7.9553 </r>
       <r>     5.0006     2.7378     8.6715 </r>
       <r>     5.2621     4.0053     9.7192 </r>
       <r>     5.5237     3.5481    10.6473 </r>
       <r>     5.7853     3.5931    11.5872 </r>
       <r>     6.0469     2.9508    12.3591 </r>
       <r>     6.3085     3.4653    13.2656 </r>
       <r>     6.5701     3.5590    14.1966 </r>
       <r>     6.8316     3.4461    15.0980 </r>
       <r>     7.0932     3.2646    15.9520 </r>
       <r>     7.3548     3.1841    16.7849 </r>
       <r>     7.6164     4.0751    17.8508 </r>
       <r>     7.8780     4.7547    19.0946 </r>
       <r>     8.1396     4.0078    20.1430 </r>
       <r>     8.4011     3.4262    21.0392 </r>
       <r>     8.6627     0.8385    21.2586 </r>
       <r>     8.9243     0.4789    21.3838 </r>
       <r>     9.1859     0.3671    21.4798 </r>
       <r>     9.4475     0.6787    21.6574 </r>
       <r>     9.7091     0.9735    21.9120 </r>
       <r>     9.9706     0.5952    22.0677 </r>
       <r>    10.2322     0.3530    22.1600 </r>
       <r>    10.4938     0.4057    22.2662 </r>
       <r>    10.7554     0.5437    22.4084 </r>
       <r>    11.0170     0.3187    22.4918 </r>
       <r>    11.2786     0.3850    22.5925 </r>
       <r>    11.5401     0.7178    22.7803 </r>
       <r>    11.8017     0.4868    22.9076 </r>
       <r>    12.0633     0.5143    23.0421 </r>
       <r>    12.3249     0.4263    23.1537 </r>
       <r>    12.5865     0.1337    23.1886 </r>
       <r>    12.8481     0.4152    23.2972 </r>
       <r>    13.1097     0.3566    23.3905 </r>
       <r>    13.3712     0.3775    23.4893 </r>
       <r>    13.6328     0.2488    23.5544 </r>
       <r>    13.8944     0.2817    23.6280 </r>
       <r>    14.1560     0.3890    23.7298 </r>
       <r>    14.4176     0.6282    23.8941 </r>
       <r>    14.6792     0.5684    24.0428 </r>
       <r>    14.9407     0.1662    24.0863 </r>
       <r>    15.2023     0.2138    24.1422 </r>
       <r>    15.4639     0.1120    24.1715 </r>
       <r>    15.7255     0.0990    24.1974 </r>
       <r>    15.9871     0.3617    24.2920 </r>
       <r>    16.2487     0.2138    24.3480 </r>
       <r>    16.5102     0.1826    24.3957 </r>
       <r>    16.7718     0.4176    24.5050 </r>
       <r>    17.0334     0.6696    24.6801 </r>
       <r>    17.2950     1.0030    24.9425 </r>
       <r>    17.5566     0.9786    25.1985 </r>
       <r>    17.8182     0.5605    25.3451 </r>
       <r>    18.0797     0.5075    25.4778 </r>
       <r>    18.3413     0.5655    25.6258 </r>
       <r>    18.6029     0.7428    25.8201 </r>
       <r>    18.8645     0.5896    25.9743 </r>
       <r>    19.1261     0.8908    26.2073 </r>
       <r>    19.3877     0.8759    26.4364 </r>
       <r>    19.6493     0.6402    26.6039 </r>
       <r>    19.9108     0.4534    26.7225 </r>
       <r>    20.1724     0.4549    26.8415 </r>
       <r>    20.4340     0.7875    27.0475 </r>
       <r>    20.6956     0.7832    27.2524 </r>
       <r>    20.9572     0.6147    27.4132 </r>
       <r>    21.2188     0.3423    27.5027 </r>
       <r>    21.4803     0.6915    27.6836 </r>
       <r>    21.7419     0.5891    27.8377 </r>
       <r>    22.0035     0.5033    27.9694 </r>
       <r>    22.2651     0.8346    28.1877 </r>
       <r>    22.5267     0.6661    28.3619 </r>
       <r>    22.7883     0.6081    28.5210 </r>
       <r>    23.0498     0.6827    28.6996 </r>
       <r>    23.3114     0.4434    28.8156 </r>
       <r>    23.5730     0.8292    29.0325 </r>
       <r>    23.8346     1.1676    29.3379 </r>
       <r>    24.0962     0.8815    29.5685 </r>
       <r>    24.3578     0.6707    29.7439 </r>
       <r>    24.6193     0.8210    29.9587 </r>
       <r>    24.8809     1.1330    30.2551 </r>
       <r>    25.1425     0.7393    30.4484 </r>
       <r>    25.4041     0.7021    30.6321 </r>
       <r>    25.6657     1.0671    30.9112 </r>
       <r>    25.9273     0.9675    31.1643 </r>
       <r>    26.1888     0.7888    31.3707 </r>
       <r>    26.4504     0.8236    31.5861 </r>
       <r>    26.7120     1.1040    31.8749 </r>
       <r>    26.9736     1.4255    32.2478 </r>
       <r>    27.2352     1.0686    32.5273 </r>
       <r>    27.4968     0.5226    32.6640 </r>
       <r>    27.7584     0.7313    32.8553 </r>
       <r>    28.0199     0.8566    33.0794 </r>
       <r>    28.2815     0.7617    33.2786 </r>
       <r>    28.5431     0.7628    33.4782 </r>
       <r>    28.8047     0.8399    33.6979 </r>
       <r>    29.0663     0.7256    33.8877 </r>
       <r>    29.3279     1.0251    34.1558 </r>
       <r>    29.5894     1.0765    34.4374 </r>
       <r>    29.8510     0.2763    34.5097 </r>
       <r>    30.1126     0.4766    34.6344 </r>
       <r>    30.3742     0.7208    34.8229 </r>
       <r>    30.6358     0.4511    34.9409 </r>
       <r>    30.8974     0.8639    35.1669 </r>
       <r>    31.1589     0.7455    35.3619 </r>
       <r>    31.4205     0.7613    35.5611 </r>
       <r>    31.6821     0.7701    35.7625 </r>
       <r>    31.9437     0.7334    35.9544 </r>
       <r>    32.2053     0.6852    36.1336 </r>
       <r>    32.4669     1.0471    36.4075 </r>
       <r>    32.7284     0.9772    36.6631 </r>
       <r>    32.9900     0.5856    36.8163 </r>
       <r>    33.2516     0.6637    36.9899 </r>
       <r>    33.5132     0.7932    37.1974 </r>
       <r>    33.7748     0.6884    37.3775 </r>
       <r>    34.0364     0.4914    37.5060 </r>
       <r>    34.2980     1.5388    37.9085 </r>
       <r>    34.5595     0.8488    38.1306 </r>
       <r>    34.8211     0.4303    38.2431 </r>
       <r>    35.0827     0.8825    38.4740 </r>
       <r>    35.3443     1.2095    38.7904 </r>
       <r>    35.6059     0.9517    39.0393 </r>
       <r>    35.8675     1.0511    39.3143 </r>
       <r>    36.1290     1.1830    39.6237 </r>
       <r>    36.3906     0.9925    39.8833 </r>
       <r>    36.6522     1.0604    40.1607 </r>
       <r>    36.9138     1.4691    40.5450 </r>
       <r>    37.1754     0.8460    40.7663 </r>
       <r>    37.4370     0.6856    40.9457 </r>
       <r>    37.6985     1.1105    41.2361 </r>
       <r>    37.9601     0.8108    41.4482 </r>
       <r>    38.2217     0.4406    41.5635 </r>
       <r>    38.4833     0.8534    41.7867 </r>
       <r>    38.7449     0.6024    41.9443 </r>
       <r>    39.0065     0.4222    42.0548 </r>
       <r>    39.2680     0.5755    42.2053 </r>
       <r>    39.5296     1.1365    42.5026 </r>
       <r>    39.7912     1.0013    42.7645 </r>
       <r>    40.0528     0.9462    43.0120 </r>
       <r>    40.3144     0.6592    43.1844 </r>
       <r>    40.5760     0.7179    43.3722 </r>
       <r>    40.8376     0.7682    43.5732 </r>
       <r>    41.0991     0.7798    43.7772 </r>
       <r>    41.3607     0.7034    43.9612 </r>
       <r>    41.6223     0.7673    44.1619 </r>
       <r>    41.8839     1.2021    44.4763 </r>
       <r>    42.1455     1.1117    44.7671 </r>
       <r>    42.4071     1.2723    45.0999 </r>
       <r>    42.6686     0.9239    45.3416 </r>
       <r>    42.9302     1.0812    45.6245 </r>
       <r>    43.1918     1.1014    45.9125 </r>
       <r>    43.4534     0.9932    46.1723 </r>
       <r>    43.7150     1.2734    46.5055 </r>
       <r>    43.9766     1.1806    46.8143 </r>
       <r>    44.2381     0.9053    47.0511 </r>
       <r>    44.4997     0.7416    47.2451 </r>
       <r>    44.7613     1.3474    47.5975 </r>
       <r>    45.0229     1.1205    47.8907 </r>
       <r>    45.2845     1.0259    48.1590 </r>
       <r>    45.5461     0.5018    48.2903 </r>
       <r>    45.8076     0.9068    48.5275 </r>
       <r>    46.0692     0.8764    48.7567 </r>
       <r>    46.3308     1.0995    49.0443 </r>
       <r>    46.5924     1.1588    49.3475 </r>
       <r>    46.8540     1.1149    49.6391 </r>
       <r>    47.1156     0.7415    49.8331 </r>
       <r>    47.3771     0.9758    50.0883 </r>
       <r>    47.6387     1.4488    50.4673 </r>
       <r>    47.9003     0.8842    50.6986 </r>
       <r>    48.1619     0.4853    50.8256 </r>
       <r>    48.4235     0.9316    51.0692 </r>
       <r>    48.6851     1.2714    51.4018 </r>
       <r>    48.9467     0.9179    51.6419 </r>
       <r>    49.2082     0.9615    51.8934 </r>
       <r>    49.4698     0.8271    52.1098 </r>
       <r>    49.7314     0.7233    52.2990 </r>
       <r>    49.9930     1.0412    52.5713 </r>
       <r>    50.2546     1.2201    52.8905 </r>
       <r>    50.5162     1.0909    53.1759 </r>
       <r>    50.7777     1.3820    53.5374 </r>
       <r>    51.0393     1.6325    53.9644 </r>
       <r>    51.3009     1.0161    54.2302 </r>
       <r>    51.5625     1.1738    54.5372 </r>
       <r>    51.8241     1.1216    54.8306 </r>
       <r>    52.0857     1.1346    55.1274 </r>
       <r>    52.3472     1.2292    55.4490 </r>
       <r>    52.6088     0.8728    55.6773 </r>
       <r>    52.8704     1.0091    55.9413 </r>
       <r>    53.1320     0.9070    56.1785 </r>
       <r>    53.3936     0.8352    56.3970 </r>
       <r>    53.6552     1.1922    56.7088 </r>
       <r>    53.9167     1.1922    57.0207 </r>
       <r>    54.1783     1.1686    57.3264 </r>
       <r>    54.4399     1.3396    57.6768 </r>
       <r>    54.7015     1.1873    57.9874 </r>
       <r>    54.9631     1.2176    58.3059 </r>
       <r>    55.2247     1.5988    58.7241 </r>
       <r>    55.4863     1.2417    59.0489 </r>
       <r>    55.7478     1.6034    59.4683 </r>
       <r>    56.0094     1.2292    59.7899 </r>
       <r>    56.2710     1.0070    60.0533 </r>
       <r>    56.5326     1.3304    60.4013 </r>
       <r>    56.7942     1.0842    60.6849 </r>
       <r>    57.0558     1.3172    61.0294 </r>
       <r>    57.3173     1.8302    61.5082 </r>
       <r>    57.5789     1.1941    61.8205 </r>
       <r>    57.8405     1.4975    62.2122 </r>
       <r>    58.1021     1.3856    62.5747 </r>
       <r>    58.3637     1.5047    62.9683 </r>
       <r>    58.6253     1.4433    63.3458 </r>
       <r>    58.8868     1.8053    63.8181 </r>
       <r>    59.1484     1.4606    64.2001 </r>
       <r>    59.4100     1.6052    64.6200 </r>
       <r>    59.6716     1.9917    65.1410 </r>
       <r>    59.9332     1.6582    65.5748 </r>
       <r>    60.1948     1.8198    66.0508 </r>
       <r>    60.4563     1.5956    66.4682 </r>
       <r>    60.7179     1.9626    66.9816 </r>
       <r>    60.9795     2.1867    67.5536 </r>
       <r>    61.2411     1.7839    68.0202 </r>
       <r>    61.5027     1.9533    68.5312 </r>
       <r>    61.7643     1.3896    68.8947 </r>
       <r>    62.0258     1.4599    69.2765 </r>
       <r>    62.2874     1.6401    69.7056 </r>
       <r>    62.5490     1.4107    70.0746 </r>
       <r>    62.8106     1.8733    70.5646 </r>
       <r>    63.0722     1.6648    71.0001 </r>
       <r>    63.3338     1.7574    71.4598 </r>
       <r>    63.5954     1.3236    71.8060 </r>
       <r>    63.8569     1.5572    72.2134 </r>
       <r>    64.1185     1.8394    72.6945 </r>
       <r>    64.3801     1.3974    73.0601 </r>
       <r>    64.6417     1.4756    73.4461 </r>
       <r>    64.9033     1.9767    73.9631 </r>
       <r>    65.1649     1.9913    74.4840 </r>
       <r>    65.4264     1.5832    74.8982 </r>
       <r>    65.6880     1.9619    75.4114 </r>
       <r>    65.9496     1.8913    75.9061 </r>
       <r>    66.2112     2.1175    76.4600 </r>
       <r>    66.4728     1.3968    76.8254 </r>
       <r>    66.7344     1.5730    77.2368 </r>
       <r>    66.9959     1.8374    77.7175 </r>
       <r>    67.2575     1.5201    78.1151 </r>
       <r>    67.5191     1.3931    78.4795 </r>
       <r>    67.7807     1.8533    78.9643 </r>
       <r>    68.0423     1.3461    79.3164 </r>
       <r>    68.3039     1.3117    79.6596 </r>
       <r>    68.5654     0.6926    79.8407 </r>
       <r>    68.8270     0.2697    79.9113 </r>
       <r>    69.0886     0.1620    79.9537 </r>
       <r>    69.3502     0.1353    79.9891 </r>
       <r>    69.6118     0.0434    80.0004 </r>
       <r>    69.8734    -0.0014    80.0000 </r>
       <r>    70.1350    -0.0002    80.0000 </r>
       <r>    70.3965    -0.0000    80.0000 </r>
       <r>    70.6581    -0.0000    80.0000 </r>
       <r>    70.9197    -0.0000    80.0000 </r>
       <r>    71.1813     0.0000    80.0000 </r>
       <r>    71.4429     0.0000    80.0000 </r>
       <r>    71.7045     0.0000    80.0000 </r>
       <r>    71.9660     0.0000    80.0000 </r>
       <r>    72.2276     0.0000    80.0000 </r>
       <r>    72.4892     0.0000    80.0000 </r>
       <r>    72.7508     0.0000    80.0000 </r>
       <r>    73.0124     0.0000    80.0000 </r>
      </set>
     </set>
    </array>
   </total>
  </dos>
 </calculation>
 <structure name="finalpos" >
  <crystal>
   <varray name="basis" >
    <v>       2.33000000       0.00000000       0.00000000 </v>
    <v>      -1.16500000       2.01783919       0.00000000 </v>
    <v>       0.00000000       0.00000000       4.26400000 </v>
   </varray>
   <i name="volume">     20.04747450 </i>
   <varray name="rec_basis" >
    <v>       0.42918455       0.24778982       0.00000000 </v>
    <v>       0.00000000       0.49557963       0.00000000 </v>
    <v>       0.00000000       0.00000000       0.23452158 </v>
   </varray>
  </crystal>
  <varray name="positions" >
   <v>       0.00000000       0.00000000       0.00000000 </v>
   <v>       0.33333333       0.66666667       0.50000000 </v>
  </varray>
 </structure>
</modeling>
