unknown system                          
   1.00000000000000     
     2.306700    0.000000    0.000000
    -1.153350    1.997661    0.000000
     0.000000    0.000000    4.140180
   Fe
     2
Direct
  0.000000  0.000000  0.000000
  0.333333  0.666667  0.500000
 
   20   20   36
  160.16      151.92      129.73      99.807      69.185      43.264      24.893      14.451      10.211      9.0694    
  8.7365      9.0695      10.212      14.451      24.893      43.264      69.185      99.807      129.73      151.92    
  151.93      151.92      136.74      110.86      80.974      53.283      31.821      18.134      11.490      9.3681    
  8.7338      8.7335      9.3678      11.490      18.134      31.820      53.282      80.978      110.87      136.75    
  129.74      136.72      129.73      110.86      85.329      59.141      37.031      21.560      13.019      9.7171    
  8.7580      8.4432      8.7573      9.7170      13.020      21.559      37.028      59.139      85.332      110.86    
  99.803      110.79      110.80      99.807      80.974      59.141      38.967      23.625      14.279      10.109    
  8.7963      8.2335      8.2332      8.7961      10.110      14.281      23.625      38.965      59.137      80.970    
  69.175      80.884      85.208      80.892      69.185      53.283      37.031      23.625      14.768      10.379    
  8.8307      8.1097      7.8574      8.1097      8.8308      10.380      14.770      23.628      37.031      53.277    
  43.263      53.209      59.012      59.015      53.214      43.264      31.821      21.560      14.279      10.379    
  8.8450      8.0558      7.6430      7.6433      8.0557      8.8439      10.379      14.283      21.566      31.826    
  24.901      31.797      36.960      38.872      36.956      31.791      24.893      18.134      13.019      10.109    
  8.8308      8.0558      7.5750      7.4171      7.5755      8.0550      8.8277      10.106      13.020      18.139    
  14.451      18.148      21.564      23.611      23.607      21.556      18.143      14.451      11.490      9.7170    
  8.7964      8.1097      7.6430      7.4171      7.4177      7.6441      8.1094      8.7930      9.7112      11.485    
  10.204      11.514      13.066      14.335      14.823      14.333      13.066      11.519      10.212      9.3681    
  8.7580      8.2336      7.8573      7.6433      7.5756      7.6442      7.8598      8.2365      8.7579      9.3628    
  9.0692      9.3981      9.7781      10.196      10.481      10.482      10.200      9.7839      9.4030      9.0694    
  8.7337      8.4432      8.2333      8.1097      8.0557      8.0550      8.1094      8.2365      8.4495      8.7387    
  8.7438      8.7754      8.8306      8.8974      8.9545      8.9788      8.9575      8.9004      8.8300      8.7703    
  8.7364      8.7334      8.7574      8.7961      8.8308      8.8439      8.8277      8.7930      8.7580      8.7387    
  9.0691      8.7754      8.5243      8.3484      8.2520      8.2152      8.2160      8.2522      8.3451      8.5180    
  8.7706      9.0695      9.3678      9.7170      10.110      10.380      10.379      10.106      9.7113      9.3629    
  10.204      9.3981      8.8306      8.3484      8.0086      7.8200      7.7615      7.8192      8.0061      8.3454    
  8.8306      9.4033      10.212      11.490      13.020      14.281      14.770      14.283      13.020      11.485    
  14.451      11.514      9.7781      8.8974      8.2519      7.8200      7.6135      7.6129      7.8190      8.2522    
  8.9006      9.7838      11.519      14.451      18.134      21.559      23.625      23.628      21.566      18.139    
  24.901      18.148      13.066      10.196      8.9544      8.2153      7.7616      7.6129      7.7610      8.2161    
  8.9575      10.199      13.066      18.143      24.893      31.820      37.028      38.965      37.031      31.826    
  43.263      31.797      21.563      14.335      10.481      8.9789      8.2160      7.8192      7.8189      8.2161    
  8.9800      10.481      14.332      21.557      31.793      43.264      53.282      59.139      59.137      53.277    
  69.175      53.209      36.959      23.611      14.823      10.482      8.9575      8.2522      8.0061      8.2522    
  8.9575      10.481      14.821      23.608      36.960      53.215      69.185      80.978      85.332      80.970    
  99.803      80.884      59.012      38.873      23.607      14.333      10.200      8.9004      8.3451      8.3454    
  8.9006      10.199      14.332      23.608      38.875      59.017      80.889      99.807      110.87      110.86    
  129.73      110.79      85.208      59.015      36.956      21.556      13.066      9.7839      8.8301      8.5180    
  8.8306      9.7838      13.066      21.557      36.960      59.017      85.205      110.79      129.73      136.75    
  151.93      136.72      110.80      80.892      53.214      31.791      18.143      11.519      9.4030      8.7702    
  8.7705      9.4033      11.519      18.143      31.793      53.215      80.889      110.79      136.71      151.92    
  151.93      144.12      123.07      94.665      65.582      40.995      23.650      13.888      9.9906      8.9226    
  8.5972      8.9227      9.9907      13.888      23.650      40.995      65.582      94.665      123.07      144.12    
  144.12      144.12      129.72      105.15      76.770      50.479      30.165      17.304      11.146      9.2056    
  8.5881      8.5879      9.2053      11.147      17.304      30.163      50.478      76.773      105.16      129.73    
  123.08      129.71      123.07      105.15      80.902      56.031      35.077      20.498      12.541      9.5170    
  8.6077      8.3015      8.6071      9.5169      12.542      20.498      35.074      56.029      80.905      105.16    
  94.662      105.10      105.11      94.665      76.770      56.031      36.905      22.430      13.698      9.8636    
  8.6430      8.0964      8.0961      8.6427      9.8642      13.699      22.430      36.902      56.026      76.765    
  65.573      76.701      80.811      76.709      65.582      50.479      35.077      22.430      14.148      10.104    
  8.6756      7.9759      7.7324      7.9759      8.6757      10.104      14.150      22.433      35.077      50.473    
  40.994      50.431      55.943      55.945      50.435      40.995      30.165      20.498      13.698      10.104    
  8.6888      7.9236      7.5261      7.5264      7.9236      8.6878      10.103      13.701      20.504      30.169    
  23.657      30.165      35.049      36.861      35.046      30.159      23.650      17.304      12.541      9.8636    
  8.6757      7.9237      7.4608      7.3094      7.4613      7.9229      8.6728      9.8608      12.542      17.308    
  13.887      17.338      20.542      22.468      22.465      20.536      17.333      13.888      11.146      9.5169    
  8.6430      7.9759      7.5261      7.3094      7.3100      7.5271      7.9756      8.6399      9.5115      11.142    
  9.9833      11.188      12.623      13.801      14.255      13.799      12.623      11.193      9.9906      9.2056    
  8.6077      8.0964      7.7324      7.5264      7.4614      7.5272      7.7347      8.0992      8.6077      9.2007    
  8.9224      9.2510      9.6077      9.9918      10.253      10.254      9.9951      9.6130      9.2556      8.9226    
  8.5881      8.3015      8.0961      7.9759      7.9237      7.9229      7.9756      8.0991      8.3075      8.5928    
  8.6040      8.6434      8.7066      8.7804      8.8419      8.8672      8.8447      8.7832      8.7061      8.6385    
  8.5972      8.5878      8.6071      8.6427      8.6757      8.6879      8.6728      8.6399      8.6077      8.5928    
  8.9223      8.6434      8.4075      8.2445      8.1568      8.1242      8.1249      8.1570      8.2414      8.4016    
  8.6388      8.9227      9.2054      9.5169      9.8642      10.104      10.103      9.8608      9.5116      9.2007    
  9.9832      9.2510      8.7067      8.2445      7.9206      7.7417      7.6863      7.7409      7.9183      8.2417    
  8.7066      9.2559      9.9907      11.147      12.542      13.699      14.150      13.701      12.542      11.142    
  13.887      11.188      9.6077      8.7804      8.1567      7.7417      7.5438      7.5432      7.7407      8.1570    
  8.7834      9.6130      11.193      13.888      17.304      20.498      22.430      22.433      20.504      17.308    
  23.657      17.338      12.623      9.9917      8.8418      8.1243      7.6864      7.5432      7.6858      8.1250    
  8.8447      9.9945      12.623      17.333      23.650      30.163      35.074      36.902      35.077      30.169    
  40.994      30.165      20.542      13.801      10.253      8.8672      8.1249      7.7409      7.7407      8.1250    
  8.8682      10.253      13.798      20.536      30.160      40.995      50.478      56.029      56.026      50.474    
  65.573      50.431      35.049      22.468      14.256      10.254      8.8446      8.1570      7.9183      8.1571    
  8.8447      10.253      14.253      22.465      35.049      50.436      65.582      76.773      80.905      76.765    
  94.662      76.701      55.943      36.862      22.465      13.799      9.9951      8.7832      8.2414      8.2417    
  8.7834      9.9945      13.798      22.465      36.864      55.947      76.705      94.665      105.16      105.16    
  123.08      105.10      80.811      55.945      35.046      20.536      12.623      9.6131      8.7061      8.4016    
  8.7066      9.6130      12.623      20.536      35.049      55.947      80.808      105.10      123.07      129.73    
  144.12      129.71      105.11      76.708      50.435      30.159      17.333      11.193      9.2556      8.6385    
  8.6388      9.2559      11.193      17.333      30.160      50.436      76.705      105.10      129.69      144.12    
  129.74      123.08      105.09      80.761      55.850      34.903      20.358      12.430      9.4215      8.5209    
  8.2186      8.5210      9.4215      12.430      20.358      34.903      55.850      80.761      105.09      123.08    
  123.08      123.08      110.77      89.732      65.401      42.926      25.746      15.129      10.265      8.7642    
  8.1902      8.1900      8.7639      10.265      15.129      25.745      42.925      65.404      89.739      110.78    
  105.09      110.77      105.09      89.732      68.932      47.639      29.844      17.699      11.308      8.9917    
  8.1944      7.9138      8.1938      8.9917      11.308      17.699      29.842      47.637      68.935      89.738    
  80.758      89.722      89.722      80.761      65.401      47.639      31.375      19.268      12.190      9.2276    
  8.2185      7.7193      7.7191      8.2182      9.2280      12.191      19.268      31.373      47.635      65.398    
  55.842      65.393      68.923      65.399      55.850      42.926      29.844      19.268      12.537      9.3921    
  8.2442      7.6064      7.3881      7.6064      8.2442      9.3926      12.538      19.270      29.844      42.922    
  34.903      42.948      47.665      47.667      42.951      34.903      25.746      17.699      12.190      9.3921    
  8.2550      7.5577      7.2028      7.2031      7.5578      8.2543      9.3919      12.193      17.704      25.749    
  20.363      25.812      29.938      31.475      29.936      25.808      20.358      15.129      11.308      9.2275    
  8.2442      7.5577      7.1445      7.0108      7.1450      7.5572      8.2420      9.2254      11.308      15.133    
  12.430      15.221      17.855      19.452      19.450      17.850      15.218      12.430      10.265      8.9917    
  8.2185      7.6064      7.2028      7.0108      7.0112      7.2036      7.6062      8.2160      8.9874      10.261    
  9.4154      10.358      11.488      12.427      12.792      12.425      11.488      10.362      9.4215      8.7642    
  8.1944      7.7194      7.3881      7.2031      7.1451      7.2036      7.3898      7.7215      8.1943      8.7602    
  8.5207      8.8545      9.1694      9.4756      9.6795      9.6803      9.4782      9.1736      8.8582      8.5209    
  8.1902      7.9138      7.7191      7.6064      7.5578      7.5572      7.6061      7.7215      7.9186      8.1940    
  8.2242      8.2860      8.3723      8.4655      8.5396      8.5689      8.5418      8.4676      8.3718      8.2821    
  8.2186      8.1900      8.1938      8.2182      8.2442      8.2543      8.2419      8.2160      8.1944      8.1940    
  8.5206      8.2860      8.0952      7.9701      7.9084      7.8884      7.8890      7.9086      7.9677      8.0904    
  8.2824      8.5209      8.7640      8.9917      9.2279      9.3926      9.3919      9.2254      8.9874      8.7602    
  9.4154      8.8545      8.3723      7.9702      7.6937      7.5437      7.4979      7.5432      7.6921      7.9679    
  8.3723      8.8585      9.4215      10.265      11.308      12.191      12.539      12.193      11.308      10.261    
  12.430      10.358      9.1694      8.4655      7.9083      7.5437      7.3717      7.3713      7.5430      7.9086    
  8.4679      9.1736      10.362      12.430      15.129      17.699      19.268      19.270      17.704      15.133    
  20.363      15.221      11.488      9.4756      8.5395      7.8884      7.4979      7.3713      7.4973      7.8889    
  8.5418      9.4778      11.487      15.217      20.358      25.745      29.842      31.373      29.844      25.749    
  34.903      25.812      17.855      12.427      9.6796      8.5689      7.8890      7.5432      7.5429      7.8889    
  8.5696      9.6798      12.425      17.850      25.809      34.903      42.925      47.637      47.635      42.922    
  55.842      42.948      29.938      19.452      12.792      9.6803      8.5417      7.9086      7.6921      7.9086    
  8.5418      9.6798      12.790      19.450      29.938      42.952      55.850      65.404      68.935      65.398    
  80.758      65.393      47.665      31.475      19.450      12.425      9.4782      8.4676      7.9677      7.9680    
  8.4679      9.4778      12.425      19.450      31.478      47.668      65.396      80.761      89.739      89.738    
  105.09      89.722      68.923      47.667      29.936      17.850      11.488      9.1737      8.3718      8.0904    
  8.3723      9.1736      11.487      17.850      29.938      47.668      68.921      89.715      105.09      110.78    
  123.08      110.77      89.722      65.399      42.951      25.808      15.218      10.362      8.8582      8.2821    
  8.2823      8.8585      10.362      15.217      25.809      42.952      65.396      89.715      110.76      123.08    
  99.798      94.655      80.749      61.931      42.732      26.818      16.124      10.644      8.7063      7.9613    
  7.6980      7.9614      8.7064      10.644      16.124      26.818      42.732      61.931      80.749      94.655    
  94.658      94.655      85.135      68.844      50.035      32.819      19.970      12.400      9.1928      8.1419    
  7.6386      7.6384      8.1416      9.1931      12.400      19.969      32.819      50.036      68.849      85.141    
  80.753      85.152      80.749      68.844      52.741      36.372      22.947      14.132      9.7989      8.2999    
  7.6149      7.3750      7.6144      8.2998      9.7994      14.131      22.946      36.371      52.742      68.848    
  61.929      68.886      68.887      61.931      50.035      36.372      24.068      15.209      10.330      8.4240    
  7.6164      7.1915      7.1913      7.6161      8.4242      10.331      15.209      24.066      36.369      50.032    
  42.727      50.109      52.845      50.113      42.732      32.819      22.947      15.209      10.543      8.5049    
  7.6270      7.0846      6.9034      7.0847      7.6271      8.5051      10.544      15.210      22.947      32.816    
  26.818      32.937      36.554      36.555      32.939      26.818      19.970      14.132      10.330      8.5049    
  7.6325      7.0380      6.7445      6.7448      7.0382      7.6321      8.5047      10.332      14.135      19.972    
  16.128      20.128      23.208      24.365      23.207      20.125      16.124      12.400      9.7989      8.4240    
  7.6271      7.0380      6.6948      6.5854      6.6952      7.0378      7.6256      8.4226      9.7994      12.403    
  10.644      12.573      14.444      15.596      15.594      14.440      12.571      10.644      9.1928      8.2999    
  7.6164      7.0846      6.7445      6.5854      6.5856      6.7449      7.0844      7.6147      8.2969      9.1902    
  8.7021      9.3588      10.119      10.757      11.007      10.756      10.119      9.3616      8.7064      8.1419    
  7.6149      7.1915      6.9034      6.7448      6.6953      6.7449      6.9043      7.1929      7.6149      8.1391    
  7.9612      8.2993      8.6065      8.8497      8.9969      8.9973      8.8513      8.6094      8.3019      7.9613    
  7.6385      7.3750      7.1913      7.0847      7.0383      7.0378      7.0843      7.1929      7.3783      7.6412    
  7.7018      7.7963      7.9136      8.0320      8.1220      8.1563      8.1234      8.0334      7.9132      7.7935    
  7.6980      7.6383      7.6144      7.6161      7.6271      7.6321      7.6256      7.6147      7.6149      7.6412    
  7.9611      7.7963      7.6731      7.6039      7.5798      7.5781      7.5785      7.5801      7.6022      7.6698    
  7.7937      7.9614      8.1417      8.2998      8.4241      8.5051      8.5047      8.4226      8.2970      8.1391    
  8.7020      8.2993      7.9137      7.6039      7.3991      7.2924      7.2608      7.2922      7.3982      7.6024    
  7.9136      8.3021      8.7064      9.1931      9.7994      10.331      10.544      10.332      9.7994      9.1902    
  10.644      9.3588      8.6066      8.0320      7.5798      7.2924      7.1596      7.1593      7.2920      7.5800    
  8.0337      8.6094      9.3613      10.644      12.400      14.131      15.209      15.210      14.135      12.403    
  16.128      12.573      10.119      8.8497      8.1219      7.5781      7.2608      7.1593      7.2603      7.5783    
  8.1234      8.8511      10.119      12.570      16.124      19.969      22.946      24.066      22.947      19.972    
  26.818      20.128      14.444      10.757      8.9969      8.1563      7.5786      7.2922      7.2919      7.5783    
  8.1567      8.9971      10.756      14.440      20.125      26.818      32.819      36.371      36.369      32.816    
  42.727      32.937      23.208      15.596      11.007      8.9973      8.1233      7.5801      7.3982      7.5800    
  8.1234      8.9971      11.006      15.594      23.208      32.940      42.732      50.036      52.743      50.032    
  61.929      50.109      36.554      24.365      15.594      10.756      8.8513      8.0334      7.6022      7.6024    
  8.0337      8.8511      10.756      15.594      24.367      36.557      50.112      61.931      68.849      68.848    
  80.753      68.886      52.845      36.555      23.207      14.440      10.119      8.6094      7.9132      7.6698    
  7.9136      8.6094      10.119      14.440      23.208      36.557      52.843      68.882      80.749      85.140    
  94.658      85.152      68.887      50.113      32.939      20.125      12.571      9.3617      8.3019      7.7935    
  7.7937      8.3021      9.3614      12.570      20.125      32.940      50.112      68.882      85.146      94.655    
  69.059      65.465      55.755      42.673      29.504      18.918      12.217      9.1028      7.9786      7.3579    
  7.1454      7.3579      7.9787      9.1028      12.217      18.918      29.504      42.673      55.755      65.465    
  65.466      65.465      58.803      47.434      34.427      22.786      14.485      9.9781      8.2355      7.4583    
  7.0494      7.0492      7.4581      8.2358      9.9786      14.485      22.786      34.428      47.437      58.806    
  55.758      58.840      55.755      47.434      36.263      25.111      16.297      10.890      8.4880      7.5501    
  6.9883      6.7986      6.9878      7.5500      8.4884      10.891      16.297      25.110      36.264      47.437    
  42.672      47.529      47.529      42.673      34.427      25.111      16.989      11.477      8.7105      7.6159    
  6.9561      6.6213      6.6211      6.9558      7.6159      8.7106      11.477      16.988      25.109      34.426    
  29.501      34.584      36.480      34.586      29.504      22.786      16.297      11.477      8.8017      7.6490    
  6.9429      6.5144      6.3752      6.5145      6.9429      7.6490      8.8020      11.478      16.297      22.784    
  18.918      22.999      25.447      25.448      23.000      18.918      14.485      10.890      8.7104      7.6490    
  6.9397      6.4659      6.2399      6.2402      6.4662      6.9396      7.6488      8.7113      10.892      14.487    
  12.219      14.733      16.724      17.481      16.724      14.732      12.217      9.9782      8.4880      7.6159    
  6.9429      6.4659      6.1975      6.1134      6.1979      6.4659      6.9422      7.6152      8.4884      9.9799    
  9.1025      10.233      11.359      12.067      12.066      11.357      10.232      9.1028      8.2355      7.5501    
  6.9561      6.5144      6.2399      6.1133      6.1134      6.2400      6.5142      6.9552      7.5485      8.2341    
  7.9761      8.4779      8.9539      9.3337      9.4812      9.3329      8.9539      8.4796      7.9786      7.4583    
  6.9882      6.6213      6.3752      6.2402      6.1979      6.2401      6.3755      6.6220      6.9882      7.4566    
  7.3578      7.6880      7.9955      8.2319      8.3597      8.3599      8.2326      7.9969      7.6895      7.3579    
  7.0494      6.7986      6.6211      6.5145      6.4662      6.4659      6.5142      6.6220      6.8005      7.0509    
  7.1475      7.2749      7.4194      7.5571      7.6578      7.6952      7.6585      7.5577      7.4190      7.2733    
  7.1454      7.0492      6.9878      6.9558      6.9429      6.9396      6.9422      6.9552      6.9883      7.0509    
  7.3577      7.2749      7.2258      7.2141      7.2270      7.2425      7.2428      7.2273      7.2132      7.2239    
  7.2735      7.3579      7.4581      7.5500      7.6159      7.6490      7.6488      7.6152      7.5485      7.4566    
  7.9761      7.6880      7.4195      7.2141      7.0866      7.0252      7.0083      7.0253      7.0863      7.2134    
  7.4194      7.6896      7.9787      8.2358      8.4884      8.7106      8.8020      8.7113      8.4884      8.2341    
  9.1025      8.4779      7.9955      7.5571      7.2270      7.0252      6.9348      6.9347      7.0251      7.2272    
  7.5580      7.9970      8.4793      9.1028      9.9786      10.891      11.477      11.478      10.892      9.9799    
  12.219      10.233      8.9539      8.2318      7.6578      7.2425      7.0083      6.9347      7.0079      7.2425    
  7.6585      8.2326      8.9535      10.232      12.217      14.485      16.297      16.988      16.297      14.487    
  18.918      14.733      11.359      9.3336      8.3598      7.6952      7.2429      7.0253      7.0250      7.2425    
  7.6953      8.3599      9.3328      11.357      14.732      18.918      22.786      25.110      25.109      22.784    
  29.501      22.999      16.724      12.067      9.4812      8.3599      7.6584      7.2273      7.0863      7.2272    
  7.6585      8.3599      9.4809      12.066      16.724      23.000      29.504      34.428      36.264      34.426    
  42.672      34.584      25.448      17.481      12.066      9.3329      8.2325      7.5577      7.2132      7.2134    
  7.5580      8.2325      9.3328      12.066      17.483      25.449      34.585      42.673      47.437      47.437    
  55.757      47.529      36.480      25.448      16.724      11.357      8.9539      7.9969      7.4191      7.2239    
  7.4194      7.9970      8.9535      11.357      16.724      25.449      36.479      47.526      55.755      58.806    
  65.466      58.840      47.529      34.586      23.000      14.732      10.232      8.4796      7.6895      7.2733    
  7.2735      7.6897      8.4793      10.232      14.732      23.000      34.585      47.526      58.837      65.465    
  42.885      40.643      34.622      26.627      18.822      12.900      9.4987      8.0516      7.2846      6.8063    
  6.6485      6.8063      7.2846      8.0516      9.4987      12.900      18.822      26.627      34.622      40.643    
  40.644      40.643      36.492      29.479      21.639      14.927      10.504      8.3605      7.4340      6.8229    
  6.5174      6.5173      6.8227      7.4342      8.3609      10.504      14.927      21.639      29.480      36.493    
  34.623      36.542      34.622      29.479      22.702      16.179      11.352      8.6816      7.5381      6.8402    
  6.4158      6.2775      6.4155      6.8401      7.5384      8.6819      11.351      16.179      22.702      29.480    
  26.627      29.611      29.611      26.627      21.638      16.179      11.684      8.8978      7.5957      6.8512    
  6.3449      6.1004      6.1003      6.3446      6.8511      7.5957      8.8976      11.683      16.179      21.638    
  18.821      21.855      23.000      21.855      18.822      14.927      11.352      8.8978      7.6159      6.8555    
  6.3033      5.9871      5.8871      5.9872      6.3033      6.8553      7.6157      8.8979      11.352      14.926    
  12.900      15.208      16.628      16.628      15.209      12.900      10.504      8.6817      7.5957      6.8555    
  6.2896      5.9327      5.7677      5.7679      5.9330      6.2897      6.8554      7.5960      8.6825      10.505    
  9.4996      10.819      11.900      12.318      11.900      10.819      9.4987      8.3605      7.5381      6.8512    
  6.3033      5.9327      5.7297      5.6667      5.7299      5.9328      6.3032      6.8510      7.5384      8.3613    
  8.0514      8.6793      9.2700      9.6412      9.6409      9.2694      8.6790      8.0516      7.4340      6.8402    
  6.3449      5.9871      5.7677      5.6667      5.6667      5.7677      5.9870      6.3446      6.8396      7.4334    
  7.2834      7.7397      8.1223      8.3767      8.4678      8.3763      8.1223      7.7405      7.2846      6.8229    
  6.4158      6.1004      5.8871      5.7679      5.7300      5.7677      5.8870      6.1006      6.4158      6.8221    
  6.8062      7.1152      7.4046      7.6296      7.7525      7.7525      7.6297      7.4051      7.1158      6.8063    
  6.5174      6.2775      6.1003      5.9872      5.9330      5.9328      5.9870      6.1006      6.2783      6.5180    
  6.6494      6.8030      6.9642      7.1098      7.2126      7.2499      7.2127      7.1098      6.9639      6.8024    
  6.6485      6.5173      6.4155      6.3446      6.3033      6.2897      6.3031      6.3445      6.4158      6.5180    
  6.8062      6.8030      6.8204      6.8561      6.8970      6.9244      6.9246      6.8972      6.8558      6.8197    
  6.8025      6.8063      6.8227      6.8401      6.8510      6.8553      6.8554      6.8510      6.8396      6.8222    
  7.2834      7.1152      6.9642      6.8561      6.7962      6.7723      6.7672      6.7726      6.7963      6.8559    
  6.9642      7.1159      7.2846      7.4342      7.5384      7.5957      7.6158      7.5960      7.5384      7.4334    
  8.0514      7.7397      7.4047      7.1098      6.8969      6.7723      6.7187      6.7187      6.7724      6.8971    
  7.1101      7.4052      7.7403      8.0516      8.3609      8.6819      8.8976      8.8979      8.6825      8.3613    
  9.4996      8.6793      8.1223      7.6296      7.2126      6.9244      6.7672      6.7187      6.7669      6.9243    
  7.2127      7.6298      8.1220      8.6785      9.4987      10.504      11.351      11.683      11.352      10.505    
  12.900      10.819      9.2700      8.3767      7.7526      7.2499      6.9246      6.7726      6.7724      6.9243    
  7.2499      7.7527      8.3764      9.2691      10.818      12.900      14.927      16.179      16.179      14.926    
  18.821      15.208      11.900      9.6412      8.4678      7.7525      7.2127      6.8972      6.7963      6.8971    
  7.2127      7.7527      8.4679      9.6411      11.900      15.209      18.822      21.639      22.702      21.638    
  26.627      21.855      16.628      12.318      9.6409      8.3763      7.6297      7.1098      6.8558      6.8559    
  7.1101      7.6298      8.3764      9.6411      12.319      16.629      21.855      26.627      29.480      29.480    
  34.623      29.611      23.000      16.628      11.900      9.2694      8.1223      7.4051      6.9639      6.8196    
  6.9642      7.4052      8.1220      9.2691      11.900      16.629      23.000      29.610      34.622      36.493    
  40.644      36.543      29.611      21.855      15.209      10.819      8.6790      7.7405      7.1158      6.8023    
  6.8025      7.1159      7.7403      8.6785      10.818      15.209      21.855      29.610      36.541      40.643    
  24.171      22.978      19.819      15.753      12.005      9.4154      8.0609      7.2839      6.7069      6.3695    
  6.2615      6.3695      6.7069      7.2839      8.0608      9.4154      12.005      15.753      19.819      22.978    
  22.978      22.978      20.777      17.142      13.255      10.171      8.3433      7.4177      6.7516      6.3091    
  6.0982      6.0981      6.3090      6.7517      7.4180      8.3437      10.171      13.255      17.142      20.778    
  19.819      20.834      19.819      17.142      13.738      10.661      8.5894      7.4961      6.7782      6.2569    