    2    2    1    1
  0.9538983E+01  0.2306700E-09  0.2306700E-09  0.4140180E-09  0.5000000E-15
  1.000000000000000E-004
  CAR 
 unknown system                          
     16     96     40
 
  0.0000000E+00  0.0000000E+00  0.0000000E+00  0.7513148E-03
    1       -1.603226   1.000000
    2        2.270997   1.000000
    3        5.131382   1.000000
    4        5.950060   1.000000
    5        5.950126   1.000000
    6        6.263721   1.000000
    7        6.263799   1.000000
    8        6.703474   1.000000
    9        7.422526   1.034801
   10        7.422544   1.034802
   11        8.506911  -0.000000
   12        8.506930  -0.000000
   13       15.329371   0.000000
   14       31.266689   0.000000
   15       31.953663   0.000000
   16       34.975632   0.000000
   17       38.045999   0.000000
   18       38.046064   0.000000
   19       38.530296   0.000000
   20       38.777204   0.000000
   21       38.777373   0.000000
   22       41.235571   0.000000
   23       41.235589   0.000000
   24       42.249084   0.000000
   25       45.074580   0.000000
   26       45.074587   0.000000
   27       45.790813   0.000000
   28       49.336566   0.000000
   29       49.336979   0.000000
   30       51.252092   0.000000
   31       51.252254   0.000000
   32       53.614363   0.000000
   33       61.168241   0.000000
   34       63.118705   0.000000
   35       63.118882   0.000000
   36       63.119704   0.000000
   37       64.187828   0.000000
   38       65.783826   0.000000
   39       65.784817   0.000000
   40       67.125522   0.000000
 
  0.9090909E-01 -0.3807597E-17  0.0000000E+00  0.4507889E-02
    1       -1.250253   1.000000
    2        2.543242   1.000000
    3        5.180733   1.000000
    4        5.850959   1.000000
    5        5.877737   1.000000
    6        6.133370   1.000000
    7        6.166106   1.000000
    8        6.466584   1.000000
    9        7.238330   1.003769
   10        7.300851   1.010843
   11        8.539254  -0.000000
   12        9.613658  -0.000000
   13       15.353763   0.000000
   14       30.819578   0.000000
   15       31.673215   0.000000
   16       33.510961   0.000000
   17       35.121328   0.000000
   18       36.977466   0.000000
   19       37.205966   0.000000
   20       38.427213   0.000000
   21       40.630610   0.000000
   22       41.506851   0.000000
   23       41.886499   0.000000
   24       42.506548   0.000000
   25       46.312248   0.000000
   26       46.668332   0.000000
   27       46.686297   0.000000
   28       47.027512   0.000000
   29       50.350771   0.000000
   30       52.628989   0.000000
   31       53.760343   0.000000
   32       55.603745   0.000000
   33       60.122847   0.000000
   34       62.069054   0.000000
   35       62.110830   0.000000
   36       62.733867   0.000000
   37       62.977583   0.000000
   38       66.626653   0.000000
   39       67.168420   0.000000
   40       67.219962   0.000000
 
  0.1818182E+00 -0.7008734E-17  0.0000000E+00  0.4507889E-02
    1       -0.257443   1.000000
    2        3.177501   1.000000
    3        4.772660   1.000000
    4        5.062686   1.000000
    5        5.614594   1.000000
    6        6.230781   1.000000
    7        6.764321   1.000000
    8        6.805300   1.000000
    9        7.011176   1.000012
   10        7.023770   1.000017
   11        8.585569  -0.000000
   12       11.497658  -0.000000
   13       15.451710   0.000000
   14       27.099505   0.000000
   15       32.140216   0.000000
   16       32.225373   0.000000
   17       32.238140   0.000000
   18       32.977040   0.000000
   19       37.551599   0.000000
   20       38.355206   0.000000
   21       38.897185   0.000000
   22       39.693574   0.000000
   23       42.811944   0.000000
   24       43.629449   0.000000
   25       46.742584   0.000000
   26       47.706242   0.000000
   27       49.066617   0.000000
   28       51.337227   0.000000
   29       53.357716   0.000000
   30       55.647217   0.000000
   31       56.436422   0.000000
   32       58.648558   0.000000
   33       58.886006   0.000000
   34       59.452402   0.000000
   35       60.363075   0.000000
   36       61.643632   0.000000
   37       63.959294   0.000000
   38       67.097283   0.000000
   39       67.463986   0.000000
   40       67.582487   0.000000
 
  0.2727273E+00  0.5189616E-17  0.0000000E+00  0.4507889E-02
    1        1.128044   1.000000
    2        3.445439   1.000000
    3        3.904144   1.000000
    4        5.063363   1.000000
    5        5.423104   1.000000
    6        6.270044   1.000000
    7        6.683144   1.000000
    8        7.064596   1.000058
    9        7.616315   0.759080
   10        7.805712   0.070054
   11        8.605686  -0.000000
   12       13.642524   0.000000
   13       15.685641   0.000000
   14       22.994730   0.000000
   15       28.612612   0.000000
   16       29.597465   0.000000
   17       30.524137   0.000000
   18       33.086799   0.000000
   19       35.868951   0.000000
   20       38.392529   0.000000
   21       39.011226   0.000000
   22       39.272764   0.000000
   23       40.295574   0.000000
   24       43.682825   0.000000
   25       50.395714   0.000000
   26       51.669115   0.000000
   27       52.708843   0.000000
   28       53.718691   0.000000
   29       54.330378   0.000000
   30       56.178793   0.000000
   31       57.449068   0.000000
   32       59.294813   0.000000
   33       60.134408   0.000000
   34       60.197638   0.000000
   35       61.570648   0.000000
   36       64.011289   0.000000
   37       64.693054   0.000000
   38       67.012589   0.000000
   39       67.821476   0.000000
   40       68.352392   0.000000
 
  0.3636364E+00 -0.1462393E-16  0.0000000E+00  0.4507889E-02
    1        2.299188   1.000000
    2        3.135548   1.000000
    3        3.326294   1.000000
    4        5.229776   1.000000
    5        5.794344   1.000000
    6        5.942023   1.000000
    7        6.410940   1.000000
    8        8.441608  -0.000001
    9        8.478265  -0.000000
   10        8.593617  -0.000000
   11        8.599869  -0.000000
   12       15.660313   0.000000
   13       15.935814   0.000000
   14       19.938868   0.000000
   15       25.209562   0.000000
   16       27.601055   0.000000
   17       27.650972   0.000000
   18       32.343755   0.000000
   19       34.860858   0.000000
   20       38.145561   0.000000
   21       38.580987   0.000000
   22       40.113398   0.000000
   23       40.340032   0.000000
   24       43.720722   0.000000
   25       50.894710   0.000000
   26       52.679494   0.000000
   27       53.734656   0.000000
   28       56.969780   0.000000
   29       56.979600   0.000000
   30       57.216814   0.000000
   31       58.922797   0.000000
   32       60.704679   0.000000
   33       61.273224   0.000000
   34       61.559426   0.000000
   35       63.469439   0.000000
   36       64.964925   0.000000
   37       66.791676   0.000000
   38       67.558228   0.000000
   39       67.894981   0.000000
   40       68.874147   0.000000
 
  0.4545455E+00  0.4194240E-16  0.0000000E+00  0.4507889E-02
    1        2.669542   1.000000
    2        2.907949   1.000000
    3        3.041391   1.000000
    4        5.519137   1.000000
    5        5.856111   1.000000
    6        6.204802   1.000000
    7        6.259369   1.000000
    8        8.590659  -0.000000
    9        9.016011  -0.000000
   10        9.123652  -0.000000
   11       10.274964  -0.000000
   12       13.894574   0.000000
   13       18.107939   0.000000
   14       19.777130   0.000000
   15       22.508778   0.000000
   16       24.805386   0.000000
   17       26.559843   0.000000
   18       31.726585   0.000000
   19       34.542459   0.000000
   20       36.940154   0.000000
   21       38.391845   0.000000
   22       41.113264   0.000000
   23       42.774764   0.000000
   24       43.186514   0.000000
   25       47.501560   0.000000
   26       53.214733   0.000000
   27       54.547860   0.000000
   28       58.240155   0.000000
   29       59.211896   0.000000
   30       60.094074   0.000000
   31       61.186425   0.000000
   32       61.978189   0.000000
   33       62.020844   0.000000
   34       63.686592   0.000000
   35       64.728215   0.000000
   36       66.223831   0.000000
   37       67.237673   0.000000
   38       67.305576   0.000000
   39       69.257628   0.000000
   40       69.840228   0.000000
 
  0.9090909E-01  0.9090909E-01  0.0000000E+00  0.4507889E-02
    1       -0.574065   1.000000
    2        3.019313   1.000000
    3        5.064169   1.000000
    4        5.084832   1.000000
    5        5.866585   1.000000
    6        5.884253   1.000000
    7        6.604453   1.000000
    8        6.804327   1.000000
    9        6.898325   1.000000
   10        7.243255   1.004134
   11        8.538405  -0.000000
   12       10.971592  -0.000000
   13       15.418775   0.000000
   14       28.833234   0.000000
   15       30.293420   0.000000
   16       32.317030   0.000000
   17       34.070825   0.000000
   18       35.958730   0.000000
   19       36.092160   0.000000
   20       37.393451   0.000000
   21       38.181905   0.000000
   22       43.360594   0.000000
   23       43.650669   0.000000
   24       44.481633   0.000000
   25       45.190748   0.000000
   26       45.704268   0.000000
   27       45.974437   0.000000
   28       51.922182   0.000000
   29       53.992529   0.000000
   30       54.452521   0.000000
   31       54.589373   0.000000
   32       58.154388   0.000000
   33       59.014253   0.000000
   34       60.011213   0.000000
   35       61.127577   0.000000
   36       61.724165   0.000000
   37       63.146537   0.000000
   38       66.942524   0.000000
   39       67.801826   0.000000
   40       67.877722   0.000000
 
  0.1818182E+00  0.9090909E-01  0.0000000E+00  0.9015778E-02
    1        0.646423   1.000000
    2        3.614012   1.000000
    3        4.219815   1.000000
    4        4.792923   1.000000
    5        5.529935   1.000000
    6        6.300654   1.000000
    7        6.346947   1.000000
    8        6.956151   1.000002
    9        7.389322   1.029425
   10        7.705316   0.398648
   11        8.521433  -0.000000
   12       12.893233  -0.000000
   13       15.631753   0.000000
   14       25.100145   0.000000
   15       27.828009   0.000000
   16       30.478423   0.000000
   17       32.570344   0.000000
   18       33.457330   0.000000
   19       36.262594   0.000000
   20       36.602416   0.000000
   21       37.809574   0.000000
   22       42.414716   0.000000
   23       42.704257   0.000000
   24       44.246548   0.000000
   25       47.261365   0.000000
   26       48.059719   0.000000
   27       50.275304   0.000000
   28       54.145325   0.000000
   29       55.942447   0.000000
   30       56.502690   0.000000
   31       57.107725   0.000000
   32       59.051841   0.000000
   33       59.579649   0.000000
   34       60.102302   0.000000
   35       61.209233   0.000000
   36       61.593642   0.000000
   37       63.965612   0.000000
   38       67.032404   0.000000
   39       68.358019   0.000000
   40       68.444222   0.000000
 
  0.2727273E+00  0.9090909E-01  0.0000000E+00  0.9015778E-02
    1        2.031994   1.000000
    2        3.506888   1.000000
    3        3.586797   1.000000
    4        4.908044   1.000000
    5        5.626887   1.000000
    6        5.870612   1.000000
    7        6.555274   1.000000
    8        7.223712   1.002840
    9        8.246651  -0.000237
   10        8.496853  -0.000000
   11        8.754774  -0.000000
   12       15.089859   0.000000
   13       16.009234   0.000000
   14       21.286398   0.000000
   15       26.055068   0.000000
   16       27.005771   0.000000
   17       30.040437   0.000000
   18       31.532530   0.000000
   19       35.876415   0.000000
   20       37.186047   0.000000
   21       37.760312   0.000000
   22       41.656585   0.000000
   23       42.077942   0.000000
   24       45.176676   0.000000
   25       49.288474   0.000000
   26       51.834803   0.000000
   27       53.030297   0.000000
   28       53.172916   0.000000
   29       55.545683   0.000000
   30       57.616739   0.000000
   31       58.267702   0.000000
   32       60.670002   0.000000
   33       61.586480   0.000000
   34       61.704371   0.000000
   35       62.847375   0.000000
   36       64.500111   0.000000
   37       66.737746   0.000000
   38       67.434341   0.000000
   39       67.657626   0.000000
   40       68.722060   0.000000
 
  0.3636364E+00  0.9090909E-01  0.0000000E+00  0.9015778E-02
    1        2.812361   1.000000
    2        3.172950   1.000000
    3        3.209483   1.000000
    4        5.377274   1.000000
    5        5.584961   1.000000
    6        6.065100   1.000000
    7        6.220491   1.000000
    8        8.269512  -0.000129
    9        8.469280  -0.000000
   10        8.830001  -0.000000
   11       10.066182  -0.000000
   12       15.331051   0.000000
   13       17.400430   0.000000
   14       19.608889   0.000000
   15       23.904651   0.000000
   16       24.621778   0.000000
   17       26.729436   0.000000
   18       30.611774   0.000000
   19       34.932788   0.000000
   20       36.700890   0.000000
   21       39.308876   0.000000
   22       41.915448   0.000000
   23       42.707893   0.000000
   24       44.447778   0.000000
   25       49.513868   0.000000
   26       51.949429   0.000000
   27       53.445229   0.000000
   28       55.340107   0.000000
   29       57.184800   0.000000
   30       58.902008   0.000000
   31       60.164657   0.000000
   32       61.546714   0.000000
   33       62.175454   0.000000
   34       64.465683   0.000000
   35       65.220546   0.000000
   36       66.009735   0.000000
   37       66.177863   0.000000
   38       68.187774   0.000000
   39       68.456155   0.000000
   40       69.864388   0.000000
 
  0.4545455E+00  0.9090909E-01  0.0000000E+00  0.4507889E-02
    1        2.882207   1.000000
    2        3.085981   1.000000
    3        3.100939   1.000000
    4        5.487471   1.000000
    5        5.838851   1.000000
    6        6.091985   1.000000
    7        6.161169   1.000000
    8        8.458018  -0.000000
    9        8.873364  -0.000000
   10        8.905181  -0.000000
   11       11.356726  -0.000000
   12       13.647836   0.000000
   13       18.973525   0.000000
   14       20.226399   0.000000
   15       22.081118   0.000000
   16       23.647308   0.000000
   17       25.310885   0.000000
   18       30.289974   0.000000
   19       34.530768   0.000000
   20       36.561033   0.000000
   21       39.678741   0.000000
   22       42.635972   0.000000
   23       43.374791   0.000000
   24       44.215552   0.000000
   25       47.319459   0.000000
   26       53.121403   0.000000
   27       53.592062   0.000000
   28       55.829464   0.000000
   29       59.235832   0.000000
   30       59.387908   0.000000
   31       62.256427   0.000000
   32       62.275391   0.000000
   33       62.340619   0.000000
   34       63.114599   0.000000
   35       64.774489   0.000000
   36       67.436971   0.000000
   37       68.121294   0.000000
   38       68.137161   0.000000
   39       68.219917   0.000000
   40       70.325068   0.000000
 
  0.1818182E+00  0.1818182E+00  0.0000000E+00  0.4507889E-02
    1        1.960285   1.000000
    2        3.741276   1.000000
    3        4.108086   1.000000
    4        4.300081   1.000000
    5        5.604139   1.000000
    6        5.805267   1.000000
    7        6.611886   1.000000
    8        6.689122   1.000000
    9        8.218346  -0.000485
   10        8.380905  -0.000004
   11        8.834235  -0.000000
   12       14.825062   0.000000
   13       16.154322   0.000000
   14       23.037632   0.000000
   15       23.905039   0.000000
   16       28.538508   0.000000
   17       30.083374   0.000000
   18       32.466450   0.000000
   19       33.092192   0.000000
   20       37.168535   0.000000
   21       39.431333   0.000000
   22       43.546349   0.000000
   23       44.227480   0.000000
   24       46.124877   0.000000
   25       47.064501   0.000000
   26       49.135720   0.000000
   27       50.125018   0.000000
   28       54.534788   0.000000
   29       56.417489   0.000000
   30       56.846987   0.000000
   31       57.216487   0.000000
   32       61.037335   0.000000
   33       61.174482   0.000000
   34       63.370212   0.000000
   35       63.801895   0.000000
   36       64.282172   0.000000
   37       64.542105   0.000000
   38       67.099391   0.000000
   39       67.645920   0.000000
   40       70.130325   0.000000
 
  0.2727273E+00  0.1818182E+00  0.0000000E+00  0.9015778E-02
    1        3.175388   1.000000
    2        3.440978   1.000000
    3        3.761224   1.000000
    4        4.577497   1.000000
    5        5.506544   1.000000
    6        5.921426   1.000000
    7        6.238304   1.000000
    8        7.257098   1.005316
    9        8.258369  -0.000174
   10        8.746252  -0.000000
   11       10.243440  -0.000000
   12       16.802526   0.000000
   13       17.070675   0.000000
   14       20.022713   0.000000
   15       22.191974   0.000000
   16       25.860480   0.000000
   17       28.412535   0.000000
   18       28.852041   0.000000
   19       31.788691   0.000000
   20       39.454531   0.000000
   21       39.932601   0.000000
   22       43.425162   0.000000
   23       45.576528   0.000000
   24       47.283402   0.000000
   25       47.982754   0.000000
   26       50.065265   0.000000
   27       51.341866   0.000000
   28       52.518470   0.000000
   29       55.810825   0.000000
   30       57.068268   0.000000
   31       59.479293   0.000000
   32       61.631847   0.000000
   33       62.613216   0.000000
   34       64.214212   0.000000
   35       65.874386   0.000000
   36       66.033675   0.000000
   37       67.545961   0.000000
   38       67.897667   0.000000
   39       69.386456   0.000000
   40       71.091700   0.000000
 
  0.3636364E+00  0.1818182E+00  0.0000000E+00  0.9015778E-02
    1        3.309219   1.000000
    2        3.439828   1.000000
    3        3.613565   1.000000
    4        5.159531   1.000000
    5        5.458542   1.000000
    6        5.822910   1.000000
    7        6.221851   1.000000
    8        8.058217  -0.011377
    9        8.189815  -0.000953
   10        8.726788  -0.000000
   11       11.955259  -0.000000
   12       15.158771   0.000000
   13       19.367229   0.000000
   14       20.225804   0.000000
   15       21.264222   0.000000
   16       23.121509   0.000000
   17       25.802964   0.000000
   18       27.777877   0.000000
   19       31.130100   0.000000
   20       39.976364   0.000000
   21       41.687431   0.000000
   22       43.588441   0.000000
   23       44.878806   0.000000
   24       46.067913   0.000000
   25       49.879572   0.000000
   26       50.497974   0.000000
   27       52.103590   0.000000
   28       53.267632   0.000000
   29       57.070595   0.000000
   30       58.136335   0.000000
   31       58.982922   0.000000
   32       61.665566   0.000000
   33       62.542181   0.000000
   34       62.577626   0.000000
   35       66.873340   0.000000
   36       67.503220   0.000000
   37       68.840608   0.000000
   38       69.366218   0.000000
   39       69.413958   0.000000
   40       69.573554   0.000000
 
  0.2727273E+00  0.2727273E+00  0.0000000E+00  0.4507889E-02
    1        3.465187   1.000000
    2        3.920283   1.000000
    3        4.269344   1.000000
    4        4.277844   1.000000
    5        5.332601   1.000000
    6        5.780660   1.000000
    7        6.253834   1.000000
    8        7.547550   0.948238
    9        8.048604  -0.013044
   10        8.682156  -0.000000
   11       12.111791  -0.000000
   12       17.327076   0.000000
   13       17.985255   0.000000
   14       19.409286   0.000000
   15       20.961347   0.000000
   16       25.147326   0.000000
   17       25.327932   0.000000
   18       27.600526   0.000000
   19       28.456908   0.000000
   20       41.187432   0.000000
   21       42.097028   0.000000
   22       46.370427   0.000000
   23       47.391747   0.000000
   24       47.516524   0.000000
   25       47.692942   0.000000
   26       48.474308   0.000000
   27       51.181541   0.000000
   28       53.664100   0.000000
   29       53.909796   0.000000
   30       58.152895   0.000000
   31       58.339296   0.000000
   32       60.982185   0.000000
   33       62.487713   0.000000
   34       62.686587   0.000000
   35       66.886234   0.000000
   36       67.783951   0.000000
   37       67.973301   0.000000
   38       68.958806   0.000000
   39       69.468157   0.000000
   40       71.306732   0.000000
 
  0.3636364E+00  0.2727273E+00  0.0000000E+00  0.4507889E-02
    1        3.513412   1.000000
    2        4.038110   1.000000
    3        4.137163   1.000000
    4        4.672616   1.000000
    5        5.413464   1.000000
    6        5.427387   1.000000
    7        6.409379   1.000000
    8        7.968302  -0.030398
    9        7.969065  -0.030244
   10        8.314768  -0.000035
   11       13.950793   0.000000
   12       15.361482   0.000000
   13       17.597981   0.000000
   14       21.455234   0.000000
   15       21.932095   0.000000
   16       22.946369   0.000000
   17       24.996549   0.000000
   18       25.839746   0.000000
   19       27.844153   0.000000
   20       41.545954   0.000000
   21       44.665666   0.000000
   22       45.478945   0.000000
   23       46.503729   0.000000
   24       46.941921   0.000000
   25       48.510948   0.000000
   26       49.656914   0.000000
   27       53.003513   0.000000
   28       53.549426   0.000000
   29       53.784625   0.000000
   30       57.151640   0.000000
   31       58.302440   0.000000
   32       59.010133   0.000000
   33       61.916053   0.000000
   34       62.190618   0.000000
   35       66.777983   0.000000
   36       68.053645   0.000000
   37       69.167633   0.000000
   38       69.273716   0.000000
   39       70.088268   0.000000
   40       70.593741   0.000000
 
  0.0000000E+00  0.0000000E+00  0.9090909E-01  0.1502630E-02
    1       -1.521367   1.000000
    2        2.240393   1.000000
    3        5.110006   1.000000
    4        5.943550   1.000000
    5        5.943616   1.000000
    6        6.247667   1.000000
    7        6.247744   1.000000
    8        6.490479   1.000000
    9        7.458556   1.033232
   10        7.458575   1.033228
   11        8.496459  -0.000000
   12        8.496479  -0.000000
   13       15.699408   0.000000
   14       30.548235   0.000000
   15       32.125497   0.000000
   16       34.809142   0.000000
   17       38.087389   0.000000
   18       38.087446   0.000000
   19       38.783225   0.000000
   20       38.783388   0.000000
   21       39.022133   0.000000
   22       41.183176   0.000000
   23       41.183191   0.000000
   24       42.511226   0.000000
   25       44.770357   0.000000
   26       44.770372   0.000000
   27       46.004090   0.000000
   28       49.574110   0.000000
   29       49.574505   0.000000
   30       51.632801   0.000000
   31       51.632953   0.000000
   32       53.424994   0.000000
   33       60.291224   0.000000
   34       62.922879   0.000000
   35       62.923670   0.000000
   36       63.283911   0.000000
   37       64.402058   0.000000
   38       64.402590   0.000000
   39       65.156420   0.000000
   40       65.422963   0.000000
 
  0.9090909E-01 -0.3807597E-17  0.9090909E-01  0.9015778E-02
    1       -1.170404   1.000000
    2        2.516648   1.000000
    3        5.166638   1.000000
    4        5.720699   1.000000
    5        5.826375   1.000000
    6        6.156144   1.000000
    7        6.161222   1.000000
    8        6.448687   1.000000
    9        7.283777   1.008337
   10        7.342682   1.018878
   11        8.524172  -0.000000
   12        9.465098  -0.000000
   13       15.758910   0.000000
   14       30.613356   0.000000
   15       31.288594   0.000000
   16       33.473652   0.000000
   17       35.187179   0.000000
   18       36.396015   0.000000
   19       37.747031   0.000000
   20       38.807076   0.000000
   21       40.364805   0.000000
   22       41.624977   0.000000
   23       41.934477   0.000000
   24       42.688177   0.000000
   25       45.986204   0.000000
   26       46.254631   0.000000
   27       47.404175   0.000000
   28       47.497433   0.000000
   29       50.221070   0.000000
   30       52.833720   0.000000
   31       54.034835   0.000000
   32       55.449745   0.000000
   33       58.912256   0.000000
   34       61.645699   0.000000
   35       62.467103   0.000000
   36       62.854211   0.000000
   37       63.550335   0.000000
   38       65.452385   0.000000
   39       65.628129   0.000000
   40       66.707627   0.000000
 
  0.1818182E+00 -0.7008734E-17  0.9090909E-01  0.9015778E-02
    1       -0.185894   1.000000
    2        3.164025   1.000000
    3        4.693488   1.000000
    4        5.078437   1.000000
    5        5.582191   1.000000
    6        6.162602   1.000000
    7        6.724616   1.000000
    8        6.915598   1.000000
    9        6.972664   1.000003
   10        7.121609   1.000277
   11        8.565870  -0.000000
   12       11.148427  -0.000000
   13       15.986245   0.000000
   14       27.155263   0.000000
   15       31.389266   0.000000
   16       32.228541   0.000000
   17       32.405778   0.000000
   18       32.887045   0.000000
   19       37.133820   0.000000
   20       38.735659   0.000000
   21       39.266295   0.000000
   22       39.478699   0.000000
   23       43.156909   0.000000
   24       44.098312   0.000000
   25       46.974612   0.000000
   26       47.630146   0.000000
   27       48.867113   0.000000
   28       51.388162   0.000000
   29       53.065926   0.000000
   30       55.809410   0.000000
   31       56.734541   0.000000
   32       57.463867   0.000000
   33       58.476607   0.000000
   34       59.907239   0.000000
   35       60.649781   0.000000
   36       62.003622   0.000000
   37       63.895965   0.000000
   38       66.274775   0.000000
   39       66.471351   0.000000
   40       68.449194   0.000000
 
  0.2727273E+00  0.5189616E-17  0.9090909E-01  0.9015778E-02
    1        1.175024   1.000000
    2        3.439167   1.000000
    3        3.886741   1.000000
    4        5.057183   1.000000
    5        5.391846   1.000000
    6        6.289168   1.000000
    7        6.704878   1.000000
    8        7.107404   1.000191
    9        7.625361   0.726260
   10        7.791915   0.101832
   11        8.582439  -0.000000
   12       12.933335  -0.000000
   13       16.523838   0.000000
   14       23.058310   0.000000
   15       28.228465   0.000000
   16       29.706302   0.000000
   17       30.768776   0.000000
   18       32.858404   0.000000
   19       35.623067   0.000000
   20       37.769544   0.000000
   21       38.100359   0.000000
   22       40.236503   0.000000
   23       41.224377   0.000000
   24       44.278741   0.000000
   25       50.490452   0.000000
   26       51.194294   0.000000
   27       52.205953   0.000000
   28       52.338674   0.000000
   29       55.854384   0.000000
   30       56.357147   0.000000
   31       57.704069   0.000000
   32       59.401196   0.000000
   33       59.499057   0.000000
   34       59.997616   0.000000
   35       62.056321   0.000000
   36       63.463849   0.000000
   37       65.053617   0.000000
   38       66.727908   0.000000
   39       66.968282   0.000000
   40       68.662700   0.000000
 
  0.3636364E+00 -0.1462393E-16  0.9090909E-01  0.9015778E-02
    1        2.280671   1.000000
    2        3.088411   1.000000
    3        3.434622   1.000000
    4        4.984234   1.000000
    5        5.914609   1.000000
    6        6.141486   1.000000
    7        6.446529   1.000000
    8        8.403265  -0.000002
    9        8.460290  -0.000000
   10        8.499874  -0.000000
   11        8.665513  -0.000000
   12       14.380067   0.000000
   13       17.244227   0.000000
   14       20.033369   0.000000
   15       24.869023   0.000000
   16       27.773942   0.000000
   17       27.974893   0.000000
   18       32.316956   0.000000
   19       34.800631   0.000000
   20       36.859842   0.000000
   21       38.501037   0.000000
   22       39.908331   0.000000
   23       41.590931   0.000000
   24       44.352488   0.000000
   25       49.704904   0.000000
   26       53.479078   0.000000
   27       53.908671   0.000000
   28       55.933812   0.000000
   29       56.441564   0.000000
   30       58.373485   0.000000
   31       59.057774   0.000000
   32       60.591944   0.000000
   33       61.523884   0.000000
   34       61.712547   0.000000
   35       63.525454   0.000000
   36       64.921995   0.000000
   37       66.332752   0.000000
   38       66.993490   0.000000
   39       68.710220   0.000000
   40       68.987987   0.000000
 
  0.4545455E+00  0.4194240E-16  0.9090909E-01  0.9015778E-02
    1        2.607059   1.000000
    2        2.766275   1.000000
    3        3.300244   1.000000
    4        5.049899   1.000000
    5        6.101519   1.000000
    6        6.298301   1.000000
    7        6.529136   1.000000
    8        8.529724  -0.000000
    9        9.018398  -0.000000
   10        9.123973  -0.000000
   11       10.177577  -0.000000
   12       13.685786   0.000000
   13       18.035856   0.000000
   14       19.803844   0.000000
   15       22.615698   0.000000
   16       25.154082   0.000000
   17       26.690187   0.000000
   18       31.737716   0.000000
   19       34.504705   0.000000
   20       35.973054   0.000000
   21       39.381527   0.000000