       N       E                     dE             d eps       ncg     rms          rms(c)
DAV:   1     0.614198171968E+02    0.61420E+02   -0.25407E+03  9320   0.326E+02
DAV:   2    -0.144287856996E+02   -0.75849E+02   -0.64654E+02  7864   0.968E+01
DAV:   3    -0.187924950342E+02   -0.43637E+01   -0.41573E+01  9608   0.242E+01
DAV:   4    -0.188103836659E+02   -0.17889E-01   -0.17878E-01  9088   0.162E+00
DAV:   5    -0.188103991605E+02   -0.15495E-04   -0.15493E-04  9216   0.455E-02    0.182E+01
DAV:   6    -0.160857571144E+02    0.27246E+01   -0.15864E+00 11256   0.233E+01    0.178E+00
DAV:   7    -0.159399899869E+02    0.14577E+00   -0.85683E-02  9936   0.437E+00    0.130E+00
DAV:   8    -0.159087135119E+02    0.31276E-01   -0.27626E-03 10152   0.346E-01    0.544E-01
DAV:   9    -0.158999562765E+02    0.87572E-02   -0.87249E-04 10704   0.159E-01    0.555E-02
DAV:  10    -0.158999871217E+02   -0.30845E-04   -0.31374E-05  8680   0.243E-02    0.255E-02
DAV:  11    -0.158999742574E+02    0.12864E-04   -0.37613E-07  8712   0.558E-03    0.207E-03
DAV:  12    -0.158999729247E+02    0.13327E-05   -0.76659E-08  6184   0.133E-03    0.116E-03
DAV:  13    -0.158999733093E+02   -0.38463E-06   -0.64374E-09  5400   0.388E-04
   1 F= -.15899973E+02 E0= -.15900675E+02  d E =0.210461E-02
