 vasp.6.2.0 18Jan21 (build Mar 17 2021 09:06:54) complex                        
  
 executed on             LinuxIFC date 2021.09.09  12:03:11
 serial version


--------------------------------------------------------------------------------------------------------


 INCAR:
   ENCUT = 280.000000
   SIGMA = 0.200000
   EDIFF = 1.00e-06
   GGA = PE
   PREC = normal
   IBRION = 1
   ICHARG = 1
   ISIF = 2
   ISMEAR = 1
   KPAR = 1
   NBANDS = 40
   NSW = 0
   NCORE = 1
   LCHARG = .TRUE.

 POTCAR:    PAW_PBE Fe 06Sep2000                  
 POTCAR:    PAW_PBE Fe 06Sep2000                  
   SHA256 =  cd5a22d9368cc8b5cc476bea79732366149640da08ac9009b0e1b7fc627eea28 Fe/POTCAR             
   COPYR  = (c) Copyright 06Sep2000 Georg Kresse                                                    
   COPYR  = This file is part of the software VASP. Any use, copying, and all other rights are regul
   COPYR  = If you do not have a valid VASP license, you may not use, copy or distribute this file. 
   VRHFIN =Fe:  d7 s1                                                                               
   LEXCH  = PE                                                                                      
   EATOM  =   594.3153 eV,   43.6809 Ry                                                             
                                                                                                    
   TITEL  = PAW_PBE Fe 06Sep2000                                                                    
   LULTRA =        F    use ultrasoft PP ?                                                          
   IUNSCR =        1    unscreen: 0-lin 1-nonlin 2-no                                               
   RPACOR =    2.000    partial core radius                                                         
   POMASS =   55.847; ZVAL   =    8.000    mass and valenz                                          
   RCORE  =    2.300    outmost cutoff radius                                                       
   RWIGS  =    2.460; RWIGS  =    1.302    wigner-seitz radius (au A)                               
   ENMAX  =  267.882; ENMIN  =  200.911 eV                                                          
   RCLOC  =    1.701    cutoff for local pot                                                        
   LCOR   =        T    correct aug charges                                                         
   LPAW   =        T    paw PP                                                                      
   EAUG   =  511.368                                                                                
   DEXC   =    0.000                                                                                
   RMAX   =    2.356    core radius for proj-oper                                                   
   RAUG   =    1.300    factor for augmentation sphere                                              
   RDEP   =    2.442    radius for radial grids                                                     
   RDEPT  =    1.890    core radius for aug-charge                                                  
                                                                                                    
   Atomic configuration                                                                             
    9 entries                                                                                       
     n  l   j            E        occ.                                                              
     1  0  0.50     -6993.8440   2.0000                                                             
     2  0  0.50      -814.6047   2.0000                                                             
     2  1  1.50      -693.3689   6.0000                                                             
     3  0  0.50       -89.4732   2.0000                                                             
     3  1  1.50       -55.6373   6.0000                                                             
     3  2  2.50        -3.8151   7.0000                                                             
     4  0  0.50        -4.2551   1.0000                                                             
     4  1  1.50        -3.4015   0.0000                                                             
     4  3  2.50        -1.3606   0.0000                                                             
   Description                                                                                      
     l       E           TYP  RCUT    TYP  RCUT                                                     
     2     -3.8151135     23  2.300                                                                 
     2     -5.1756961     23  2.300                                                                 
     0     -4.2550963     23  2.300                                                                 
     0      7.2035603     23  2.300                                                                 
     1     -2.7211652     23  2.300                                                                 
     1     18.4316424     23  2.300                                                                 
  local pseudopotential read in
  partial core-charges read in
  partial kinetic energy density read in
  atomic valenz-charges read in
  non local Contribution for L=           2  read in
    real space projection operators read in
  non local Contribution for L=           2  read in
    real space projection operators read in
  non local Contribution for L=           0  read in
    real space projection operators read in
  non local Contribution for L=           0  read in
    real space projection operators read in
  non local Contribution for L=           1  read in
    real space projection operators read in
  non local Contribution for L=           1  read in
    real space projection operators read in
    PAW grid and wavefunctions read in
 
   number of l-projection  operators is LMAX  =           6
   number of lm-projection operators is LMMAX =          18
 
  PAW_PBE Fe 06Sep2000                  :
 energy of atom  1       EATOM= -594.3153
 kinetic energy error for atom=    0.0278 (will be added to EATOM!!)
 
 
 POSCAR: Fe
  positions in cartesian coordinates
  No initial velocities read in
 exchange correlation table for  LEXCH =        8
   RHO(1)=    0.500       N(1)  =     2000
   RHO(2)=  100.500       N(2)  =     4000
 


--------------------------------------------------------------------------------------------------------


 ion  position               nearest neighbor table
   1  0.000  0.000  0.000-   2 2.46   2 2.46   2 2.46   2 2.46   2 2.46   2 2.46
   2  0.333  0.667  0.500-   1 2.46   1 2.46   1 2.46   1 2.46   1 2.46   1 2.46
 
  LATTYP: Found a hexagonal cell.
 ALAT       =     2.3067000000
 C/A-ratio  =     1.7948497854
  
  Lattice vectors:
  
 A1 = (   2.3067000000,   0.0000000000,   0.0000000000)
 A2 = (  -1.1533500000,   1.9976607989,   0.0000000000)
 A3 = (   0.0000000000,   0.0000000000,   4.1401800000)


Analysis of symmetry for initial positions (statically):
=====================================================================
 Subroutine PRICEL returns:
 Original cell was already a primitive cell.
 

 Routine SETGRP: Setting up the symmetry group for a 
 hexagonal supercell.


 Subroutine GETGRP returns: Found 24 space group operations
 (whereof 12 operations were pure point group operations)
 out of a pool of 24 trial point group operations.


The static configuration has the point symmetry D_3h.
 The point group associated with its full space group is D_6h.


Analysis of symmetry for dynamics (positions and initial velocities):
=====================================================================
 Subroutine PRICEL returns:
 Original cell was already a primitive cell.
 

 Routine SETGRP: Setting up the symmetry group for a 
 hexagonal supercell.


 Subroutine GETGRP returns: Found 24 space group operations
 (whereof 12 operations were pure point group operations)
 out of a pool of 24 trial point group operations.


The dynamic configuration has the point symmetry D_3h.
 The point group associated with its full space group is D_6h.


 Subroutine INISYM returns: Found 24 space group operations
 (whereof 12 operations are pure point group operations),
 and found     1 'primitive' translations


----------------------------------------------------------------------------------------

                                     Primitive cell                                     

  volume of cell :      19.0780

  direct lattice vectors                    reciprocal lattice vectors
     2.306700000  0.000000000  0.000000000     0.433519747  0.250292743  0.000000000
    -1.153350000  1.997660799  0.000000000     0.000000000  0.500585485  0.000000000
     0.000000000  0.000000000  4.140180000     0.000000000  0.000000000  0.241535392

  length of vectors
     2.306700000  2.306700000  4.140180000     0.500585485  0.500585485  0.241535392

  position of ions in fractional coordinates (direct lattice)
     0.000000000  0.000000000  0.000000000
     0.333333333  0.666666667  0.500000000

  ion indices of the primitive-cell ions
   primitive index   ion index
                 1           1
                 2           2

----------------------------------------------------------------------------------------

 
 
 KPOINTS: KPOINTS created by Atomic Simulation Env

Automatic generation of k-mesh.
 Grid dimensions read from file:
 generate k-points for:   11   11   11

 Generating k-lattice:

  Cartesian coordinates                     Fractional coordinates (reciprocal lattice)
     0.039410886  0.022753886  0.000000000     0.090909091  0.000000000  0.000000000
     0.000000000  0.045507771  0.000000000     0.000000000  0.090909091  0.000000000
     0.000000000  0.000000000  0.021957763     0.000000000  0.000000000  0.090909091

  Length of vectors
     0.045507771  0.045507771  0.021957763

  Shift w.r.t. Gamma in fractional coordinates (k-lattice)
     0.000000000  0.000000000  0.000000000

 
 Subroutine IBZKPT returns following result:
 ===========================================
 
 Found     96 irreducible k-points:
 
 Following reciprocal coordinates:
            Coordinates               Weight
  0.000000  0.000000  0.000000      1.000000
  0.090909 -0.000000  0.000000      6.000000
  0.181818 -0.000000  0.000000      6.000000
  0.272727  0.000000  0.000000      6.000000
  0.363636 -0.000000  0.000000      6.000000
  0.454545  0.000000  0.000000      6.000000
  0.090909  0.090909  0.000000      6.000000
  0.181818  0.090909  0.000000     12.000000
  0.272727  0.090909  0.000000     12.000000
  0.363636  0.090909  0.000000     12.000000
  0.454545  0.090909  0.000000      6.000000
  0.181818  0.181818  0.000000      6.000000
  0.272727  0.181818  0.000000     12.000000
  0.363636  0.181818  0.000000     12.000000
  0.272727  0.272727  0.000000      6.000000
  0.363636  0.272727  0.000000      6.000000
  0.000000  0.000000  0.090909      2.000000
  0.090909 -0.000000  0.090909     12.000000
  0.181818 -0.000000  0.090909     12.000000
  0.272727  0.000000  0.090909     12.000000
  0.363636 -0.000000  0.090909     12.000000
  0.454545  0.000000  0.090909     12.000000
  0.090909  0.090909  0.090909     12.000000
  0.181818  0.090909  0.090909     24.000000
  0.272727  0.090909  0.090909     24.000000
  0.363636  0.090909  0.090909     24.000000
  0.454545  0.090909  0.090909     12.000000
  0.181818  0.181818  0.090909     12.000000
  0.272727  0.181818  0.090909     24.000000
  0.363636  0.181818  0.090909     24.000000
  0.272727  0.272727  0.090909     12.000000
  0.363636  0.272727  0.090909     12.000000
  0.000000  0.000000  0.181818      2.000000
  0.090909 -0.000000  0.181818     12.000000
  0.181818 -0.000000  0.181818     12.000000
  0.272727  0.000000  0.181818     12.000000
  0.363636 -0.000000  0.181818     12.000000
  0.454545  0.000000  0.181818     12.000000
  0.090909  0.090909  0.181818     12.000000
  0.181818  0.090909  0.181818     24.000000
  0.272727  0.090909  0.181818     24.000000
  0.363636  0.090909  0.181818     24.000000
  0.454545  0.090909  0.181818     12.000000
  0.181818  0.181818  0.181818     12.000000
  0.272727  0.181818  0.181818     24.000000
  0.363636  0.181818  0.181818     24.000000
  0.272727  0.272727  0.181818     12.000000
  0.363636  0.272727  0.181818     12.000000
  0.000000  0.000000  0.272727      2.000000
  0.090909 -0.000000  0.272727     12.000000
  0.181818 -0.000000  0.272727     12.000000
  0.272727  0.000000  0.272727     12.000000
  0.363636 -0.000000  0.272727     12.000000
  0.454545  0.000000  0.272727     12.000000
  0.090909  0.090909  0.272727     12.000000
  0.181818  0.090909  0.272727     24.000000
  0.272727  0.090909  0.272727     24.000000
  0.363636  0.090909  0.272727     24.000000
  0.454545  0.090909  0.272727     12.000000
  0.181818  0.181818  0.272727     12.000000
  0.272727  0.181818  0.272727     24.000000
  0.363636  0.181818  0.272727     24.000000
  0.272727  0.272727  0.272727     12.000000
  0.363636  0.272727  0.272727     12.000000
  0.000000  0.000000  0.363636      2.000000
  0.090909 -0.000000  0.363636     12.000000
  0.181818 -0.000000  0.363636     12.000000
  0.272727  0.000000  0.363636     12.000000
  0.363636 -0.000000  0.363636     12.000000
  0.454545  0.000000  0.363636     12.000000
  0.090909  0.090909  0.363636     12.000000
  0.181818  0.090909  0.363636     24.000000
  0.272727  0.090909  0.363636     24.000000
  0.363636  0.090909  0.363636     24.000000
  0.454545  0.090909  0.363636     12.000000
  0.181818  0.181818  0.363636     12.000000
  0.272727  0.181818  0.363636     24.000000
  0.363636  0.181818  0.363636     24.000000
  0.272727  0.272727  0.363636     12.000000
  0.363636  0.272727  0.363636     12.000000
  0.000000  0.000000  0.454545      2.000000
  0.090909 -0.000000  0.454545     12.000000
  0.181818 -0.000000  0.454545     12.000000
  0.272727  0.000000  0.454545     12.000000
  0.363636 -0.000000  0.454545     12.000000
  0.454545  0.000000  0.454545     12.000000
  0.090909  0.090909  0.454545     12.000000
  0.181818  0.090909  0.454545     24.000000
  0.272727  0.090909  0.454545     24.000000
  0.363636  0.090909  0.454545     24.000000
  0.454545  0.090909  0.454545     12.000000
  0.181818  0.181818  0.454545     12.000000
  0.272727  0.181818  0.454545     24.000000
  0.363636  0.181818  0.454545     24.000000
  0.272727  0.272727  0.454545     12.000000
  0.363636  0.272727  0.454545     12.000000
 
 Following cartesian coordinates:
            Coordinates               Weight
  0.000000  0.000000  0.000000      1.000000
  0.039411  0.022754  0.000000      6.000000
  0.078822  0.045508  0.000000      6.000000
  0.118233  0.068262  0.000000      6.000000
  0.157644  0.091016  0.000000      6.000000
  0.197054  0.113769  0.000000      6.000000
  0.039411  0.068262  0.000000      6.000000
  0.078822  0.091016  0.000000     12.000000
  0.118233  0.113769  0.000000     12.000000
  0.157644  0.136523  0.000000     12.000000
  0.197054  0.159277  0.000000      6.000000
  0.078822  0.136523  0.000000      6.000000
  0.118233  0.159277  0.000000     12.000000
  0.157644  0.182031  0.000000     12.000000
  0.118233  0.204785  0.000000      6.000000
  0.157644  0.227539  0.000000      6.000000
  0.000000  0.000000  0.021958      2.000000
  0.039411  0.022754  0.021958     12.000000
  0.078822  0.045508  0.021958     12.000000
  0.118233  0.068262  0.021958     12.000000
  0.157644  0.091016  0.021958     12.000000
  0.197054  0.113769  0.021958     12.000000
  0.039411  0.068262  0.021958     12.000000
  0.078822  0.091016  0.021958     24.000000
  0.118233  0.113769  0.021958     24.000000
  0.157644  0.136523  0.021958     24.000000
  0.197054  0.159277  0.021958     12.000000
  0.078822  0.136523  0.021958     12.000000
  0.118233  0.159277  0.021958     24.000000
  0.157644  0.182031  0.021958     24.000000
  0.118233  0.204785  0.021958     12.000000
  0.157644  0.227539  0.021958     12.000000
  0.000000  0.000000  0.043916      2.000000
  0.039411  0.022754  0.043916     12.000000
  0.078822  0.045508  0.043916     12.000000
  0.118233  0.068262  0.043916     12.000000
  0.157644  0.091016  0.043916     12.000000
  0.197054  0.113769  0.043916     12.000000
  0.039411  0.068262  0.043916     12.000000
  0.078822  0.091016  0.043916     24.000000
  0.118233  0.113769  0.043916     24.000000
  0.157644  0.136523  0.043916     24.000000
  0.197054  0.159277  0.043916     12.000000
  0.078822  0.136523  0.043916     12.000000
  0.118233  0.159277  0.043916     24.000000
  0.157644  0.182031  0.043916     24.000000
  0.118233  0.204785  0.043916     12.000000
  0.157644  0.227539  0.043916     12.000000
  0.000000  0.000000  0.065873      2.000000
  0.039411  0.022754  0.065873     12.000000
  0.078822  0.045508  0.065873     12.000000
  0.118233  0.068262  0.065873     12.000000
  0.157644  0.091016  0.065873     12.000000
  0.197054  0.113769  0.065873     12.000000
  0.039411  0.068262  0.065873     12.000000
  0.078822  0.091016  0.065873     24.000000
  0.118233  0.113769  0.065873     24.000000
  0.157644  0.136523  0.065873     24.000000
  0.197054  0.159277  0.065873     12.000000
  0.078822  0.136523  0.065873     12.000000
  0.118233  0.159277  0.065873     24.000000
  0.157644  0.182031  0.065873     24.000000
  0.118233  0.204785  0.065873     12.000000
  0.157644  0.227539  0.065873     12.000000
  0.000000  0.000000  0.087831      2.000000
  0.039411  0.022754  0.087831     12.000000
  0.078822  0.045508  0.087831     12.000000
  0.118233  0.068262  0.087831     12.000000
  0.157644  0.091016  0.087831     12.000000
  0.197054  0.113769  0.087831     12.000000
  0.039411  0.068262  0.087831     12.000000
  0.078822  0.091016  0.087831     24.000000
  0.118233  0.113769  0.087831     24.000000
  0.157644  0.136523  0.087831     24.000000
  0.197054  0.159277  0.087831     12.000000
  0.078822  0.136523  0.087831     12.000000
  0.118233  0.159277  0.087831     24.000000
  0.157644  0.182031  0.087831     24.000000
  0.118233  0.204785  0.087831     12.000000
  0.157644  0.227539  0.087831     12.000000
  0.000000  0.000000  0.109789      2.000000
  0.039411  0.022754  0.109789     12.000000
  0.078822  0.045508  0.109789     12.000000
  0.118233  0.068262  0.109789     12.000000
  0.157644  0.091016  0.109789     12.000000
  0.197054  0.113769  0.109789     12.000000
  0.039411  0.068262  0.109789     12.000000
  0.078822  0.091016  0.109789     24.000000
  0.118233  0.113769  0.109789     24.000000
  0.157644  0.136523  0.109789     24.000000
  0.197054  0.159277  0.109789     12.000000
  0.078822  0.136523  0.109789     12.000000
  0.118233  0.159277  0.109789     24.000000
  0.157644  0.182031  0.109789     24.000000
  0.118233  0.204785  0.109789     12.000000
  0.157644  0.227539  0.109789     12.000000
 


--------------------------------------------------------------------------------------------------------




 Dimension of arrays:
   k-points           NKPTS =     96   k-points in BZ     NKDIM =     96   number of bands    NBANDS=     40
   number of dos      NEDOS =    301   number of ions     NIONS =      2
   non local maximal  LDIM  =      6   non local SUM 2l+1 LMDIM =     18
   total plane-waves  NPLWV =   1800
   max r-space proj   IRMAX =      1   max aug-charges    IRDMAX=   3560
   dimension x,y,z NGX =    10 NGY =   10 NGZ =   18
   dimension x,y,z NGXF=    20 NGYF=   20 NGZF=   36
   support grid    NGXF=    20 NGYF=   20 NGZF=   36
   ions per type =               2
   NGX,Y,Z   is equivalent  to a cutoff of   7.21,  7.21,  7.23 a.u.
   NGXF,Y,Z  is equivalent  to a cutoff of  14.41, 14.41, 14.46 a.u.

 SYSTEM =  unknown system                          
 POSCAR =  Fe                                      

 Startparameter for this run:
   NWRITE =      2    write-flag & timer
   PREC   = normal    normal or accurate (medium, high low for compatibility)
   ISTART =      0    job   : 0-new  1-cont  2-samecut
   ICHARG =      1    charge: 1-file 2-atom 10-const
   ISPIN  =      1    spin polarized calculation?
   LNONCOLLINEAR =      F non collinear calculations
   LSORBIT =      F    spin-orbit coupling
   INIWAV =      1    electr: 0-lowe 1-rand  2-diag
   LASPH  =      F    aspherical Exc in radial PAW
   METAGGA=      F    non-selfconsistent MetaGGA calc.

 Electronic Relaxation 1
   ENCUT  =  280.0 eV  20.58 Ry    4.54 a.u.   3.15  3.15  5.65*2*pi/ulx,y,z
   ENINI  =  280.0     initial cutoff
   ENAUG  =  511.4 eV  augmentation charge cutoff
   NELM   =     60;   NELMIN=  2; NELMDL= -5     # of ELM steps 
   EDIFF  = 0.1E-05   stopping-criterion for ELM
   LREAL  =      F    real-space projection
   NLSPLINE    = F    spline interpolate recip. space projectors
   LCOMPAT=      F    compatible to vasp.4.4
   GGA_COMPAT  = T    GGA compatible to vasp.4.4-vasp.4.6
   LMAXPAW     = -100 max onsite density
   LMAXMIX     =    2 max onsite mixed and CHGCAR
   VOSKOWN=      0    Vosko Wilk Nusair interpolation
   ROPT   =    0.00000
 Ionic relaxation
   EDIFFG = 0.1E-04   stopping-criterion for IOM
   NSW    =      0    number of steps for IOM
   NBLOCK =      1;   KBLOCK =      1    inner block; outer block 
   IBRION =     -1    ionic relax: 0-MD 1-quasi-New 2-CG
   NFREE  =      0    steps in history (QN), initial steepest desc. (CG)
   ISIF   =      2    stress and relaxation
   IWAVPR =      0    prediction:  0-non 1-charg 2-wave 3-comb
   ISYM   =      2    0-nonsym 1-usesym 2-fastsym
   LCORR  =      T    Harris-Foulkes like correction to forces

   POTIM  = 0.5000    time-step for ionic-motion
   TEIN   =    0.0    initial temperature
   TEBEG  =    0.0;   TEEND  =   0.0 temperature during run
   SMASS  =  -3.00    Nose mass-parameter (am)
   estimated Nose-frequenzy (Omega)   =  0.10E-29 period in steps = 0.13E+47 mass=  -0.122E-27a.u.
   SCALEE = 1.0000    scale energy and forces
   NPACO  =    256;   APACO  = 16.0  distance and # of slots for P.C.
   PSTRESS=    0.0 pullay stress

  Mass of Ions in am
   POMASS =  55.85
  Ionic Valenz
   ZVAL   =   8.00
  Atomic Wigner-Seitz radii
   RWIGS  =  -1.00
  virtual crystal weights 
   VCA    =   1.00
   NELECT =      16.0000    total number of electrons
   NUPDOWN=      -1.0000    fix difference up-down

 DOS related values:
   EMIN   =  10.00;   EMAX   =-10.00  energy-range for DOS
   EFERMI =   0.00
   ISMEAR =     1;   SIGMA  =   0.20  broadening in eV -4-tet -1-fermi 0-gaus

 Electronic relaxation 2 (details)
   IALGO  =     38    algorithm
   LDIAG  =      T    sub-space diagonalisation (order eigenvalues)
   LSUBROT=      F    optimize rotation matrix (better conditioning)
   TURBO    =      0    0=normal 1=particle mesh
   IRESTART =      0    0=no restart 2=restart with 2 vectors
   NREBOOT  =      0    no. of reboots
   NMIN     =      0    reboot dimension
   EREF     =   0.00    reference energy to select bands
   IMIX   =      4    mixing-type and parameters
     AMIX     =   0.40;   BMIX     =  1.00
     AMIX_MAG =   1.60;   BMIX_MAG =  1.00
     AMIN     =   0.10
     WC   =   100.;   INIMIX=   1;  MIXPRE=   1;  MAXMIX= -45

 Intra band minimization:
   WEIMIN = 0.0000     energy-eigenvalue tresh-hold
   EBREAK =  0.62E-08  absolut break condition
   DEPER  =   0.30     relativ break condition  

   TIME   =   0.40     timestep for ELM

  volume/ion in A,a.u.               =       9.54        64.37
  Fermi-wavevector in a.u.,A,eV,Ry     =   1.543847  2.917447 32.428971  2.383462
  Thomas-Fermi vector in A             =   2.649451
 
 Write flags
   LWAVE        =      T    write WAVECAR
   LDOWNSAMPLE  =      F    k-point downsampling of WAVECAR
   LCHARG       =      T    write CHGCAR
   LVTOT        =      F    write LOCPOT, total local potential
   LVHAR        =      F    write LOCPOT, Hartree potential only
   LELF         =      F    write electronic localiz. function (ELF)
   LORBIT       =      0    0 simple, 1 ext, 2 COOP (PROOUT), +10 PAW based schemes


 Dipole corrections
   LMONO  =      F    monopole corrections only (constant potential shift)
   LDIPOL =      F    correct potential (dipole corrections)
   IDIPOL =      0    1-x, 2-y, 3-z, 4-all directions 
   EPSILON=  1.0000000 bulk dielectric constant

 Exchange correlation treatment:
   GGA     =    PE    GGA type
   LEXCH   =     8    internal setting for exchange type
   VOSKOWN=      0    Vosko Wilk Nusair interpolation
   LHFCALC =     F    Hartree Fock is set to
   LHFONE  =     F    Hartree Fock one center treatment
   AEXX    =    0.0000 exact exchange contribution

 Linear response parameters
   LEPSILON=     F    determine dielectric tensor
   LRPA    =     F    only Hartree local field effects (RPA)
   LNABLA  =     F    use nabla operator in PAW spheres
   LVEL    =     F    velocity operator in full k-point grid
   LINTERFAST=   F  fast interpolation
   KINTER  =     0    interpolate to denser k-point grid
   CSHIFT  =0.1000    complex shift for real part using Kramers Kronig
   OMEGAMAX=  -1.0    maximum frequency
   DEG_THRESHOLD= 0.2000000E-02 threshold for treating states as degnerate
   RTIME   =   -0.100 relaxation time in fs
  (WPLASMAI=    0.000 imaginary part of plasma frequency in eV, 0.658/RTIME)
   DFIELD  = 0.0000000 0.0000000 0.0000000 field for delta impulse in time
 
 Orbital magnetization related:
   ORBITALMAG=     F  switch on orbital magnetization
   LCHIMAG   =     F  perturbation theory with respect to B field
   DQ        =  0.001000  dq finite difference perturbation B field
   LLRAUG    =     F  two centre corrections for induced B field



--------------------------------------------------------------------------------------------------------


 Static calculation
 charge density and potential will be updated during run
 non-spin polarized calculation
 Variant of blocked Davidson
 Davidson routine will perform the subspace rotation
 perform sub-space diagonalisation
    after iterative eigenvector-optimisation
 modified Broyden-mixing scheme, WC =      100.0
 initial mixing is a Kerker type mixing with AMIX =  0.4000 and BMIX =      1.0000
 Hartree-type preconditioning will be used
 using additional bands           32
 reciprocal scheme for non local part
 use partial core corrections
 calculate Harris-corrections to forces 
   (improved forces if not selfconsistent)
 use gradient corrections 
 use of overlap-Matrix (Vanderbilt PP)
 Methfessel and Paxton  Order N= 1 SIGMA  =   0.20


--------------------------------------------------------------------------------------------------------


  energy-cutoff  :      280.00
  volume of cell :       19.08
      direct lattice vectors                 reciprocal lattice vectors
     2.306700000  0.000000000  0.000000000     0.433519747  0.250292743  0.000000000
    -1.153350000  1.997660799  0.000000000     0.000000000  0.500585485  0.000000000
     0.000000000  0.000000000  4.140180000     0.000000000  0.000000000  0.241535392

  length of vectors
     2.306700000  2.306700000  4.140180000     0.500585485  0.500585485  0.241535392


 
 k-points in units of 2pi/SCALE and weight: KPOINTS created by Atomic Simulation Env
   0.00000000  0.00000000  0.00000000       0.001
   0.03941089  0.02275389  0.00000000       0.005
   0.07882177  0.04550777  0.00000000       0.005
   0.11823266  0.06826166  0.00000000       0.005
   0.15764354  0.09101554  0.00000000       0.005
   0.19705443  0.11376943  0.00000000       0.005
   0.03941089  0.06826166  0.00000000       0.005
   0.07882177  0.09101554  0.00000000       0.009
   0.11823266  0.11376943  0.00000000       0.009
   0.15764354  0.13652331  0.00000000       0.009
   0.19705443  0.15927720  0.00000000       0.005
   0.07882177  0.13652331  0.00000000       0.005
   0.11823266  0.15927720  0.00000000       0.009
   0.15764354  0.18203109  0.00000000       0.009
   0.11823266  0.20478497  0.00000000       0.005
   0.15764354  0.22753886  0.00000000       0.005
   0.00000000  0.00000000  0.02195776       0.002
   0.03941089  0.02275389  0.02195776       0.009
   0.07882177  0.04550777  0.02195776       0.009
   0.11823266  0.06826166  0.02195776       0.009
   0.15764354  0.09101554  0.02195776       0.009
   0.19705443  0.11376943  0.02195776       0.009
   0.03941089  0.06826166  0.02195776       0.009
   0.07882177  0.09101554  0.02195776       0.018
   0.11823266  0.11376943  0.02195776       0.018
   0.15764354  0.13652331  0.02195776       0.018
   0.19705443  0.15927720  0.02195776       0.009
   0.07882177  0.13652331  0.02195776       0.009
   0.11823266  0.15927720  0.02195776       0.018
   0.15764354  0.18203109  0.02195776       0.018
   0.11823266  0.20478497  0.02195776       0.009
   0.15764354  0.22753886  0.02195776       0.009
   0.00000000  0.00000000  0.04391553       0.002
   0.03941089  0.02275389  0.04391553       0.009
   0.07882177  0.04550777  0.04391553       0.009
   0.11823266  0.06826166  0.04391553       0.009
   0.15764354  0.09101554  0.04391553       0.009
   0.19705443  0.11376943  0.04391553       0.009
   0.03941089  0.06826166  0.04391553       0.009
   0.07882177  0.09101554  0.04391553       0.018
   0.11823266  0.11376943  0.04391553       0.018
   0.15764354  0.13652331  0.04391553       0.018
   0.19705443  0.15927720  0.04391553       0.009
   0.07882177  0.13652331  0.04391553       0.009
   0.11823266  0.15927720  0.04391553       0.018
   0.15764354  0.18203109  0.04391553       0.018
   0.11823266  0.20478497  0.04391553       0.009
   0.15764354  0.22753886  0.04391553       0.009
   0.00000000  0.00000000  0.06587329       0.002
   0.03941089  0.02275389  0.06587329       0.009
   0.07882177  0.04550777  0.06587329       0.009
   0.11823266  0.06826166  0.06587329       0.009
   0.15764354  0.09101554  0.06587329       0.009
   0.19705443  0.11376943  0.06587329       0.009
   0.03941089  0.06826166  0.06587329       0.009
   0.07882177  0.09101554  0.06587329       0.018
   0.11823266  0.11376943  0.06587329       0.018
   0.15764354  0.13652331  0.06587329       0.018
   0.19705443  0.15927720  0.06587329       0.009
   0.07882177  0.13652331  0.06587329       0.009
   0.11823266  0.15927720  0.06587329       0.018
   0.15764354  0.18203109  0.06587329       0.018
   0.11823266  0.20478497  0.06587329       0.009
   0.15764354  0.22753886  0.06587329       0.009
   0.00000000  0.00000000  0.08783105       0.002
   0.03941089  0.02275389  0.08783105       0.009
   0.07882177  0.04550777  0.08783105       0.009
   0.11823266  0.06826166  0.08783105       0.009
   0.15764354  0.09101554  0.08783105       0.009
   0.19705443  0.11376943  0.08783105       0.009
   0.03941089  0.06826166  0.08783105       0.009
   0.07882177  0.09101554  0.08783105       0.018
   0.11823266  0.11376943  0.08783105       0.018
   0.15764354  0.13652331  0.08783105       0.018
   0.19705443  0.15927720  0.08783105       0.009
   0.07882177  0.13652331  0.08783105       0.009
   0.11823266  0.15927720  0.08783105       0.018
   0.15764354  0.18203109  0.08783105       0.018
   0.11823266  0.20478497  0.08783105       0.009
   0.15764354  0.22753886  0.08783105       0.009
   0.00000000  0.00000000  0.10978881       0.002
   0.03941089  0.02275389  0.10978881       0.009
   0.07882177  0.04550777  0.10978881       0.009
   0.11823266  0.06826166  0.10978881       0.009
   0.15764354  0.09101554  0.10978881       0.009
   0.19705443  0.11376943  0.10978881       0.009
   0.03941089  0.06826166  0.10978881       0.009
   0.07882177  0.09101554  0.10978881       0.018
   0.11823266  0.11376943  0.10978881       0.018
   0.15764354  0.13652331  0.10978881       0.018
   0.19705443  0.15927720  0.10978881       0.009
   0.07882177  0.13652331  0.10978881       0.009
   0.11823266  0.15927720  0.10978881       0.018
   0.15764354  0.18203109  0.10978881       0.018
   0.11823266  0.20478497  0.10978881       0.009
   0.15764354  0.22753886  0.10978881       0.009
 
 k-points in reciprocal lattice and weights: KPOINTS created by Atomic Simulation Env
   0.00000000  0.00000000  0.00000000       0.001
   0.09090909 -0.00000000  0.00000000       0.005
   0.18181818 -0.00000000  0.00000000       0.005
   0.27272727  0.00000000  0.00000000       0.005
   0.36363636 -0.00000000  0.00000000       0.005
   0.45454545  0.00000000  0.00000000       0.005
   0.09090909  0.09090909  0.00000000       0.005
   0.18181818  0.09090909  0.00000000       0.009
   0.27272727  0.09090909  0.00000000       0.009
   0.36363636  0.09090909  0.00000000       0.009
   0.45454545  0.09090909  0.00000000       0.005
   0.18181818  0.18181818  0.00000000       0.005
   0.27272727  0.18181818  0.00000000       0.009
   0.36363636  0.18181818  0.00000000       0.009
   0.27272727  0.27272727  0.00000000       0.005
   0.36363636  0.27272727  0.00000000       0.005
   0.00000000  0.00000000  0.09090909       0.002
   0.09090909 -0.00000000  0.09090909       0.009
   0.18181818 -0.00000000  0.09090909       0.009
   0.27272727  0.00000000  0.09090909       0.009
   0.36363636 -0.00000000  0.09090909       0.009
   0.45454545  0.00000000  0.09090909       0.009
   0.09090909  0.09090909  0.09090909       0.009
   0.18181818  0.09090909  0.09090909       0.018
   0.27272727  0.09090909  0.09090909       0.018
   0.36363636  0.09090909  0.09090909       0.018
   0.45454545  0.09090909  0.09090909       0.009
   0.18181818  0.18181818  0.09090909       0.009
   0.27272727  0.18181818  0.09090909       0.018
   0.36363636  0.18181818  0.09090909       0.018
   0.27272727  0.27272727  0.09090909       0.009
   0.36363636  0.27272727  0.09090909       0.009
   0.00000000  0.00000000  0.18181818       0.002
   0.09090909 -0.00000000  0.18181818       0.009
   0.18181818 -0.00000000  0.18181818       0.009
   0.27272727  0.00000000  0.18181818       0.009
   0.36363636 -0.00000000  0.18181818       0.009
   0.45454545  0.00000000  0.18181818       0.009
   0.09090909  0.09090909  0.18181818       0.009
   0.18181818  0.09090909  0.18181818       0.018
   0.27272727  0.09090909  0.18181818       0.018
   0.36363636  0.09090909  0.18181818       0.018
   0.45454545  0.09090909  0.18181818       0.009
   0.18181818  0.18181818  0.18181818       0.009
   0.27272727  0.18181818  0.18181818       0.018
   0.36363636  0.18181818  0.18181818       0.018
   0.27272727  0.27272727  0.18181818       0.009
   0.36363636  0.27272727  0.18181818       0.009
   0.00000000  0.00000000  0.27272727       0.002
   0.09090909 -0.00000000  0.27272727       0.009
   0.18181818 -0.00000000  0.27272727       0.009
   0.27272727  0.00000000  0.27272727       0.009
   0.36363636 -0.00000000  0.27272727       0.009
   0.45454545  0.00000000  0.27272727       0.009
   0.09090909  0.09090909  0.27272727       0.009
   0.18181818  0.09090909  0.27272727       0.018
   0.27272727  0.09090909  0.27272727       0.018
   0.36363636  0.09090909  0.27272727       0.018
   0.45454545  0.09090909  0.27272727       0.009
   0.18181818  0.18181818  0.27272727       0.009
   0.27272727  0.18181818  0.27272727       0.018
   0.36363636  0.18181818  0.27272727       0.018
   0.27272727  0.27272727  0.27272727       0.009
   0.36363636  0.27272727  0.27272727       0.009
   0.00000000  0.00000000  0.36363636       0.002
   0.09090909 -0.00000000  0.36363636       0.009
   0.18181818 -0.00000000  0.36363636       0.009
   0.27272727  0.00000000  0.36363636       0.009
   0.36363636 -0.00000000  0.36363636       0.009
   0.45454545  0.00000000  0.36363636       0.009
   0.09090909  0.09090909  0.36363636       0.009
   0.18181818  0.09090909  0.36363636       0.018
   0.27272727  0.09090909  0.36363636       0.018
   0.36363636  0.09090909  0.36363636       0.018
   0.45454545  0.09090909  0.36363636       0.009
   0.18181818  0.18181818  0.36363636       0.009
   0.27272727  0.18181818  0.36363636       0.018
   0.36363636  0.18181818  0.36363636       0.018
   0.27272727  0.27272727  0.36363636       0.009
   0.36363636  0.27272727  0.36363636       0.009
   0.00000000  0.00000000  0.45454545       0.002
   0.09090909 -0.00000000  0.45454545       0.009
   0.18181818 -0.00000000  0.45454545       0.009
   0.27272727  0.00000000  0.45454545       0.009
   0.36363636 -0.00000000  0.45454545       0.009
   0.45454545  0.00000000  0.45454545       0.009
   0.09090909  0.09090909  0.45454545       0.009
   0.18181818  0.09090909  0.45454545       0.018
   0.27272727  0.09090909  0.45454545       0.018
   0.36363636  0.09090909  0.45454545       0.018
   0.45454545  0.09090909  0.45454545       0.009
   0.18181818  0.18181818  0.45454545       0.009
   0.27272727  0.18181818  0.45454545       0.018
   0.36363636  0.18181818  0.45454545       0.018
   0.27272727  0.27272727  0.45454545       0.009
   0.36363636  0.27272727  0.45454545       0.009
 
 position of ions in fractional coordinates (direct lattice) 
   0.00000000  0.00000000  0.00000000
   0.33333333  0.66666667  0.50000000
 
 position of ions in cartesian coordinates  (Angst):
   0.00000000  0.00000000  0.00000000
   0.00000000  1.33177387  2.07009000
 


--------------------------------------------------------------------------------------------------------


 k-point   1 :   0.0000 0.0000 0.0000  plane waves:     209
 k-point   2 :   0.0909-0.0000 0.0000  plane waves:     201
 k-point   3 :   0.1818-0.0000 0.0000  plane waves:     207
 k-point   4 :   0.2727 0.0000 0.0000  plane waves:     201
 k-point   5 :   0.3636-0.0000 0.0000  plane waves:     204
 k-point   6 :   0.4545 0.0000 0.0000  plane waves:     202
 k-point   7 :   0.0909 0.0909 0.0000  plane waves:     205
 k-point   8 :   0.1818 0.0909 0.0000  plane waves:     204
 k-point   9 :   0.2727 0.0909 0.0000  plane waves:     199
 k-point  10 :   0.3636 0.0909 0.0000  plane waves:     209
 k-point  11 :   0.4545 0.0909 0.0000  plane waves:     206
 k-point  12 :   0.1818 0.1818 0.0000  plane waves:     197
 k-point  13 :   0.2727 0.1818 0.0000  plane waves:     201
 k-point  14 :   0.3636 0.1818 0.0000  plane waves:     205
 k-point  15 :   0.2727 0.2727 0.0000  plane waves:     205
 k-point  16 :   0.3636 0.2727 0.0000  plane waves:     207
 k-point  17 :   0.0000 0.0000 0.0909  plane waves:     209
 k-point  18 :   0.0909-0.0000 0.0909  plane waves:     204
 k-point  19 :   0.1818-0.0000 0.0909  plane waves:     204
 k-point  20 :   0.2727 0.0000 0.0909  plane waves:     202
 k-point  21 :   0.3636-0.0000 0.0909  plane waves:     200
 k-point  22 :   0.4545 0.0000 0.0909  plane waves:     205
 k-point  23 :   0.0909 0.0909 0.0909  plane waves:     202
 k-point  24 :   0.1818 0.0909 0.0909  plane waves:     199
 k-point  25 :   0.2727 0.0909 0.0909  plane waves:     204
 k-point  26 :   0.3636 0.0909 0.0909  plane waves:     204
 k-point  27 :   0.4545 0.0909 0.0909  plane waves:     207
 k-point  28 :   0.1818 0.1818 0.0909  plane waves:     199
 k-point  29 :   0.2727 0.1818 0.0909  plane waves:     203
 k-point  30 :   0.3636 0.1818 0.0909  plane waves:     205
 k-point  31 :   0.2727 0.2727 0.0909  plane waves:     204
 k-point  32 :   0.3636 0.2727 0.0909  plane waves:     205
 k-point  33 :   0.0000 0.0000 0.1818  plane waves:     215
 k-point  34 :   0.0909-0.0000 0.1818  plane waves:     205
 k-point  35 :   0.1818-0.0000 0.1818  plane waves:     202
 k-point  36 :   0.2727 0.0000 0.1818  plane waves:     199
 k-point  37 :   0.3636-0.0000 0.1818  plane waves:     199
 k-point  38 :   0.4545 0.0000 0.1818  plane waves:     205
 k-point  39 :   0.0909 0.0909 0.1818  plane waves:     200
 k-point  40 :   0.1818 0.0909 0.1818  plane waves:     202
 k-point  41 :   0.2727 0.0909 0.1818  plane waves:     204
 k-point  42 :   0.3636 0.0909 0.1818  plane waves:     203
 k-point  43 :   0.4545 0.0909 0.1818  plane waves:     208
 k-point  44 :   0.1818 0.1818 0.1818  plane waves:     200
 k-point  45 :   0.2727 0.1818 0.1818  plane waves:     205
 k-point  46 :   0.3636 0.1818 0.1818  plane waves:     206
 k-point  47 :   0.2727 0.2727 0.1818  plane waves:     200
 k-point  48 :   0.3636 0.2727 0.1818  plane waves:     205
 k-point  49 :   0.0000 0.0000 0.2727  plane waves:     209
 k-point  50 :   0.0909-0.0000 0.2727  plane waves:     201
 k-point  51 :   0.1818-0.0000 0.2727  plane waves:     199
 k-point  52 :   0.2727 0.0000 0.2727  plane waves:     199
 k-point  53 :   0.3636-0.0000 0.2727  plane waves:     204
 k-point  54 :   0.4545 0.0000 0.2727  plane waves:     202
 k-point  55 :   0.0909 0.0909 0.2727  plane waves:     198
 k-point  56 :   0.1818 0.0909 0.2727  plane waves:     197
 k-point  57 :   0.2727 0.0909 0.2727  plane waves:     203
 k-point  58 :   0.3636 0.0909 0.2727  plane waves:     204
 k-point  59 :   0.4545 0.0909 0.2727  plane waves:     204
 k-point  60 :   0.1818 0.1818 0.2727  plane waves:     201
 k-point  61 :   0.2727 0.1818 0.2727  plane waves:     205
 k-point  62 :   0.3636 0.1818 0.2727  plane waves:     208
 k-point  63 :   0.2727 0.2727 0.2727  plane waves:     206
 k-point  64 :   0.3636 0.2727 0.2727  plane waves:     207
 k-point  65 :   0.0000 0.0000 0.3636  plane waves:     192
 k-point  66 :   0.0909-0.0000 0.3636  plane waves:     197
 k-point  67 :   0.1818-0.0000 0.3636  plane waves:     195
 k-point  68 :   0.2727 0.0000 0.3636  plane waves:     201
 k-point  69 :   0.3636-0.0000 0.3636  plane waves:     202
 k-point  70 :   0.4545 0.0000 0.3636  plane waves:     201
 k-point  71 :   0.0909 0.0909 0.3636  plane waves:     197
 k-point  72 :   0.1818 0.0909 0.3636  plane waves:     199
 k-point  73 :   0.2727 0.0909 0.3636  plane waves:     203
 k-point  74 :   0.3636 0.0909 0.3636  plane waves:     205
 k-point  75 :   0.4545 0.0909 0.3636  plane waves:     203
 k-point  76 :   0.1818 0.1818 0.3636  plane waves:     199
 k-point  77 :   0.2727 0.1818 0.3636  plane waves:     207
 k-point  78 :   0.3636 0.1818 0.3636  plane waves:     207
 k-point  79 :   0.2727 0.2727 0.3636  plane waves:     211
 k-point  80 :   0.3636 0.2727 0.3636  plane waves:     209
 k-point  81 :   0.0000 0.0000 0.4545  plane waves:     192
 k-point  82 :   0.0909-0.0000 0.4545  plane waves:     198
 k-point  83 :   0.1818-0.0000 0.4545  plane waves:     198
 k-point  84 :   0.2727 0.0000 0.4545  plane waves:     202
 k-point  85 :   0.3636-0.0000 0.4545  plane waves:     202
 k-point  86 :   0.4545 0.0000 0.4545  plane waves:     202
 k-point  87 :   0.0909 0.0909 0.4545  plane waves:     198
 k-point  88 :   0.1818 0.0909 0.4545  plane waves:     198
 k-point  89 :   0.2727 0.0909 0.4545  plane waves:     201
 k-point  90 :   0.3636 0.0909 0.4545  plane waves:     204
 k-point  91 :   0.4545 0.0909 0.4545  plane waves:     204
 k-point  92 :   0.1818 0.1818 0.4545  plane waves:     200
 k-point  93 :   0.2727 0.1818 0.4545  plane waves:     206
 k-point  94 :   0.3636 0.1818 0.4545  plane waves:     206
 k-point  95 :   0.2727 0.2727 0.4545  plane waves:     214
 k-point  96 :   0.3636 0.2727 0.4545  plane waves:     213

 maximum number of plane-waves:       215
 maximum index in each direction: 
   IXMAX=    3   IYMAX=    3   IZMAX=    5
   IXMIN=   -3   IYMIN=   -3   IZMIN=   -6


 total amount of memory used by VASP MPI-rank0    49243. kBytes
=======================================================================

   base      :      30000. kBytes
   nonl-proj :       2979. kBytes
   grid      :        812. kBytes
   one-center:         31. kBytes
   wavefun   :      15421. kBytes
 
     INWAV:  cpu time    0.0000: real time    0.0000
 Broyden mixing: mesh for mixing (old mesh)
   NGX =  7   NGY =  7   NGZ = 11
  (NGX  = 20   NGY  = 20   NGZ  = 36)
  gives a total of    539 points

 initial charge density was supplied:
 charge density of overlapping atoms calculated
 number of electron      16.0000000 magnetization 
 keeping initial charge density in first step


--------------------------------------------------------------------------------------------------------


 Maximum index for augmentation-charges         3276 (set IRDMAX)


--------------------------------------------------------------------------------------------------------


 First call to EWALD:  gamma=   0.663
 Maximum number of real-space cells 4x 4x 2
 Maximum number of reciprocal cells 2x 2x 4

    FEWALD:  cpu time    0.0009: real time    0.0009


--------------------------------------- Iteration      1(   1)  ---------------------------------------


    POTLOK:  cpu time    0.0035: real time    0.0035
    SETDIJ:  cpu time    0.0022: real time    0.0022
     EDDAV:  cpu time    0.8375: real time    0.8584
       DOS:  cpu time    0.0054: real time    0.0054
    --------------------------------------------
      LOOP:  cpu time    0.8486: real time    0.8695

 eigenvalue-minimisations  :  9320
 total energy-change (2. order) : 0.6141982E+02  (-0.2540728E+03)
 number of electron      16.0000000 magnetization 
 augmentation part       16.0000000 magnetization 

 Free energy of the ion-electron system (eV)
  ---------------------------------------------------
  alpha Z        PSCENC =       144.90805472
  Ewald energy   TEWEN  =     -1253.34132160
  -Hartree energ DENC   =      -198.20991954
  -exchange      EXHF   =         0.00000000
  -V(xc)+E(xc)   XCENC  =         8.92712717
  PAW double counting   =      1109.69170683    -1125.09647265
  entropy T*S    EENTRO =         0.00107925
  eigenvalues    EBANDS =       185.96465491
  atomic energy  EATOM  =      1188.57490811
  Solvation  Ediel_sol  =         0.00000000
  ---------------------------------------------------
  free energy    TOTEN  =        61.41981720 eV

  energy without entropy =       61.41873795  energy(sigma->0) =       61.41945745


--------------------------------------------------------------------------------------------------------




--------------------------------------- Iteration      1(   2)  ---------------------------------------


     EDDAV:  cpu time    0.7013: real time    0.7014
       DOS:  cpu time    0.0060: real time    0.0060
    --------------------------------------------
      LOOP:  cpu time    0.7073: real time    0.7074

 eigenvalue-minimisations  :  7864
 total energy-change (2. order) :-0.7584860E+02  (-0.6465395E+02)
 number of electron      16.0000000 magnetization 
 augmentation part       16.0000000 magnetization 

 Free energy of the ion-electron system (eV)
  ---------------------------------------------------
  alpha Z        PSCENC =       144.90805472
  Ewald energy   TEWEN  =     -1253.34132160
  -Hartree energ DENC   =      -198.20991954
  -exchange      EXHF   =         0.00000000
  -V(xc)+E(xc)   XCENC  =         8.92712717
  PAW double counting   =      1109.69170683    -1125.09647265
  entropy T*S    EENTRO =        -0.00126165
  eigenvalues    EBANDS =       110.11839291
  atomic energy  EATOM  =      1188.57490811
  Solvation  Ediel_sol  =         0.00000000
  ---------------------------------------------------
  free energy    TOTEN  =       -14.42878570 eV

  energy without entropy =      -14.42752405  energy(sigma->0) =      -14.42836515


--------------------------------------------------------------------------------------------------------




--------------------------------------- Iteration      1(   3)  ---------------------------------------


     EDDAV:  cpu time    0.7876: real time    0.7877
       DOS:  cpu time    0.0064: real time    0.0064
    --------------------------------------------
      LOOP:  cpu time    0.7940: real time    0.7941

 eigenvalue-minimisations  :  9608
 total energy-change (2. order) :-0.4363709E+01  (-0.4157336E+01)
 number of electron      16.0000000 magnetization 
 augmentation part       16.0000000 magnetization 

 Free energy of the ion-electron system (eV)
  ---------------------------------------------------
  alpha Z        PSCENC =       144.90805472
  Ewald energy   TEWEN  =     -1253.34132160
  -Hartree energ DENC   =      -198.20991954
  -exchange      EXHF   =         0.00000000
  -V(xc)+E(xc)   XCENC  =         8.92712717
  PAW double counting   =      1109.69170683    -1125.09647265
  entropy T*S    EENTRO =         0.00034449
  eigenvalues    EBANDS =       105.75307745
  atomic energy  EATOM  =      1188.57490811
  Solvation  Ediel_sol  =         0.00000000
  ---------------------------------------------------
  free energy    TOTEN  =       -18.79249503 eV

  energy without entropy =      -18.79283952  energy(sigma->0) =      -18.79260986


--------------------------------------------------------------------------------------------------------




--------------------------------------- Iteration      1(   4)  ---------------------------------------


     EDDAV:  cpu time    0.7509: real time    0.7509
       DOS:  cpu time    0.0063: real time    0.0063
    --------------------------------------------
      LOOP:  cpu time    0.7571: real time    0.7572

 eigenvalue-minimisations  :  9088
 total energy-change (2. order) :-0.1788863E-01  (-0.1787793E-01)
 number of electron      16.0000000 magnetization 
 augmentation part       16.0000000 magnetization 

 Free energy of the ion-electron system (eV)
  ---------------------------------------------------
  alpha Z        PSCENC =       144.90805472
  Ewald energy   TEWEN  =     -1253.34132160
  -Hartree energ DENC   =      -198.20991954
  -exchange      EXHF   =         0.00000000
  -V(xc)+E(xc)   XCENC  =         8.92712717
  PAW double counting   =      1109.69170683    -1125.09647265
  entropy T*S    EENTRO =         0.00035982
  eigenvalues    EBANDS =       105.73517349
  atomic energy  EATOM  =      1188.57490811
  Solvation  Ediel_sol  =         0.00000000
  ---------------------------------------------------
  free energy    TOTEN  =       -18.81038367 eV

  energy without entropy =      -18.81074348  energy(sigma->0) =      -18.81050360


--------------------------------------------------------------------------------------------------------




--------------------------------------- Iteration      1(   5)  ---------------------------------------


     EDDAV:  cpu time    0.7551: real time    0.7552
       DOS:  cpu time    0.0064: real time    0.0064
    CHARGE:  cpu time    0.0199: real time    0.0199
    MIXING:  cpu time    0.0001: real time    0.0001
    --------------------------------------------
      LOOP:  cpu time    0.7815: real time    0.7816

 eigenvalue-minimisations  :  9216
 total energy-change (2. order) :-0.1549468E-04  (-0.1549306E-04)
 number of electron      15.9999928 magnetization 
 augmentation part        7.1401217 magnetization 

 Broyden mixing:
  rms(total) = 0.18201E+01    rms(broyden)= 0.18201E+01
  rms(prec ) = 0.29119E+01
  weight for this iteration     100.00

 Free energy of the ion-electron system (eV)
  ---------------------------------------------------
  alpha Z        PSCENC =       144.90805472
  Ewald energy   TEWEN  =     -1253.34132160
  -Hartree energ DENC   =      -198.20991954
  -exchange      EXHF   =         0.00000000
  -V(xc)+E(xc)   XCENC  =         8.92712717
  PAW double counting   =      1109.69170683    -1125.09647265
  entropy T*S    EENTRO =         0.00035980
  eigenvalues    EBANDS =       105.73515800
  atomic energy  EATOM  =      1188.57490811
  Solvation  Ediel_sol  =         0.00000000
  ---------------------------------------------------
  free energy    TOTEN  =       -18.81039916 eV

  energy without entropy =      -18.81075897  energy(sigma->0) =      -18.81051910


--------------------------------------------------------------------------------------------------------




--------------------------------------- Iteration      1(   6)  ---------------------------------------


    POTLOK:  cpu time    0.0033: real time    0.0033
    SETDIJ:  cpu time    0.0021: real time    0.0021
     EDDAV:  cpu time    0.9071: real time    0.9071
       DOS:  cpu time    0.0067: real time    0.0067
    CHARGE:  cpu time    0.0195: real time    0.0195
    MIXING:  cpu time    0.0002: real time    0.0002
    --------------------------------------------
      LOOP:  cpu time    0.9389: real time    0.9390

 eigenvalue-minimisations  : 11256
 total energy-change (2. order) : 0.2724642E+01  (-0.1586445E+00)
 number of electron      15.9999910 magnetization 
 augmentation part        8.4031673 magnetization 

 Broyden mixing:
  rms(total) = 0.17848E+00    rms(broyden)= 0.17836E+00
  rms(prec ) = 0.28106E+00
  weight for this iteration     100.00

 eigenvalues of (default mixing * dielectric matrix)
  average eigenvalue GAMMA=   0.9782
  0.9782

 Free energy of the ion-electron system (eV)
  ---------------------------------------------------
  alpha Z        PSCENC =       144.90805472
  Ewald energy   TEWEN  =     -1253.34132160
  -Hartree energ DENC   =      -165.90630350
  -exchange      EXHF   =         0.00000000
  -V(xc)+E(xc)   XCENC  =         7.34478500
  PAW double counting   =      1296.41177262    -1308.07722457
  entropy T*S    EENTRO =         0.00219073
  eigenvalues    EBANDS =        73.99738139
  atomic energy  EATOM  =      1188.57490811
  Solvation  Ediel_sol  =         0.00000000
  ---------------------------------------------------
  free energy    TOTEN  =       -16.08575711 eV

  energy without entropy =      -16.08794784  energy(sigma->0) =      -16.08648736


--------------------------------------------------------------------------------------------------------




--------------------------------------- Iteration      1(   7)  ---------------------------------------


    POTLOK:  cpu time    0.0034: real time    0.0034
    SETDIJ:  cpu time    0.0021: real time    0.0021
     EDDAV:  cpu time    0.8079: real time    0.8080
       DOS:  cpu time    0.0067: real time    0.0067
    CHARGE:  cpu time    0.0195: real time    0.0195
    MIXING:  cpu time    0.0002: real time    0.0002
    --------------------------------------------
      LOOP:  cpu time    0.8397: real time    0.8398

 eigenvalue-minimisations  :  9936
 total energy-change (2. order) : 0.1457671E+00  (-0.8568322E-02)
 number of electron      15.9999913 magnetization 
 augmentation part        8.1793434 magnetization 

 Broyden mixing:
  rms(total) = 0.12965E+00    rms(broyden)= 0.12965E+00
  rms(prec ) = 0.20894E+00
  weight for this iteration     100.00

 eigenvalues of (default mixing * dielectric matrix)
  average eigenvalue GAMMA=   1.0764
  1.3662  0.7866

 Free energy of the ion-electron system (eV)
  ---------------------------------------------------
  alpha Z        PSCENC =       144.90805472
  Ewald energy   TEWEN  =     -1253.34132160
  -Hartree energ DENC   =      -168.53446352
  -exchange      EXHF   =         0.00000000
  -V(xc)+E(xc)   XCENC  =         7.50242075
  PAW double counting   =      1390.08757909    -1405.19830895
  entropy T*S    EENTRO =         0.00203748
  eigenvalues    EBANDS =        80.05910394
  atomic energy  EATOM  =      1188.57490811
  Solvation  Ediel_sol  =         0.00000000
  ---------------------------------------------------
  free energy    TOTEN  =       -15.93998999 eV

  energy without entropy =      -15.94202747  energy(sigma->0) =      -15.94066915


--------------------------------------------------------------------------------------------------------




--------------------------------------- Iteration      1(   8)  ---------------------------------------


    POTLOK:  cpu time    0.0034: real time    0.0034
    SETDIJ:  cpu time    0.0021: real time    0.0021
     EDDAV:  cpu time    0.8254: real time    0.8254
       DOS:  cpu time    0.0064: real time    0.0064
    CHARGE:  cpu time    0.0194: real time    0.0194
    MIXING:  cpu time    0.0002: real time    0.0002
    --------------------------------------------
      LOOP:  cpu time    0.8569: real time    0.8569

 eigenvalue-minimisations  : 10152
 total energy-change (2. order) : 0.3127647E-01  (-0.2762634E-03)
 number of electron      15.9999912 magnetization 
 augmentation part        8.2063891 magnetization 

 Broyden mixing:
  rms(total) = 0.54387E-01    rms(broyden)= 0.54387E-01
  rms(prec ) = 0.84588E-01
  weight for this iteration     100.00

 eigenvalues of (default mixing * dielectric matrix)
  average eigenvalue GAMMA=   1.4929
  1.0492  0.8232  2.6065

 Free energy of the ion-electron system (eV)
  ---------------------------------------------------
  alpha Z        PSCENC =       144.90805472
  Ewald energy   TEWEN  =     -1253.34132160
  -Hartree energ DENC   =      -166.27153914
  -exchange      EXHF   =         0.00000000
  -V(xc)+E(xc)   XCENC  =         7.41208086
  PAW double counting   =      1474.76077439    -1491.50449112
  entropy T*S    EENTRO =         0.00209631
  eigenvalues    EBANDS =        79.55072397
  atomic energy  EATOM  =      1188.57490811
  Solvation  Ediel_sol  =         0.00000000
  ---------------------------------------------------
  free energy    TOTEN  =       -15.90871351 eV

  energy without entropy =      -15.91080982  energy(sigma->0) =      -15.90941228


--------------------------------------------------------------------------------------------------------




--------------------------------------- Iteration      1(   9)  ---------------------------------------


    POTLOK:  cpu time    0.0034: real time    0.0034
    SETDIJ:  cpu time    0.0021: real time    0.0021
     EDDAV:  cpu time    0.8627: real time    0.8627
       DOS:  cpu time    0.0065: real time    0.0065
    CHARGE:  cpu time    0.0197: real time    0.0197
    MIXING:  cpu time    0.0002: real time    0.0002
    --------------------------------------------
      LOOP:  cpu time    0.8947: real time    0.8947

 eigenvalue-minimisations  : 10704
 total energy-change (2. order) : 0.8757235E-02  (-0.8724908E-04)
 number of electron      15.9999912 magnetization 
 augmentation part        8.2178938 magnetization 

 Broyden mixing:
  rms(total) = 0.55500E-02    rms(broyden)= 0.55483E-02
  rms(prec ) = 0.65247E-02
  weight for this iteration     100.00

 eigenvalues of (default mixing * dielectric matrix)
  average eigenvalue GAMMA=   1.5510
  2.6523  0.8252  0.9872  1.7391

 Free energy of the ion-electron system (eV)
  ---------------------------------------------------
  alpha Z        PSCENC =       144.90805472
  Ewald energy   TEWEN  =     -1253.34132160
  -Hartree energ DENC   =      -164.50004990
  -exchange      EXHF   =         0.00000000
  -V(xc)+E(xc)   XCENC  =         7.34603886
  PAW double counting   =      1559.15876429    -1577.47765662
  entropy T*S    EENTRO =         0.00210659
  eigenvalues    EBANDS =        79.42919928
  atomic energy  EATOM  =      1188.57490811
  Solvation  Ediel_sol  =         0.00000000
  ---------------------------------------------------
  free energy    TOTEN  =       -15.89995628 eV

  energy without entropy =      -15.90206287  energy(sigma->0) =      -15.90065847


--------------------------------------------------------------------------------------------------------




--------------------------------------- Iteration      1(  10)  ---------------------------------------


    POTLOK:  cpu time    0.0034: real time    0.0034
    SETDIJ:  cpu time    0.0021: real time    0.0021
     EDDAV:  cpu time    0.7183: real time    0.7183
       DOS:  cpu time    0.0067: real time    0.0067
    CHARGE:  cpu time    0.0197: real time    0.0197
    MIXING:  cpu time    0.0003: real time    0.0003
    --------------------------------------------
      LOOP:  cpu time    0.7505: real time    0.7505

 eigenvalue-minimisations  :  8680
 total energy-change (2. order) :-0.3084519E-04  (-0.3137354E-05)
 number of electron      15.9999912 magnetization 
 augmentation part        8.2180348 magnetization 

 Broyden mixing:
  rms(total) = 0.25488E-02    rms(broyden)= 0.25471E-02
  rms(prec ) = 0.35110E-02
  weight for this iteration     100.00

 eigenvalues of (default mixing * dielectric matrix)
  average eigenvalue GAMMA=   1.6408
  2.5372  2.5372  0.8244  1.0026  1.3024

 Free energy of the ion-electron system (eV)
  ---------------------------------------------------
  alpha Z        PSCENC =       144.90805472
  Ewald energy   TEWEN  =     -1253.34132160
  -Hartree energ DENC   =      -164.52575430
  -exchange      EXHF   =         0.00000000
  -V(xc)+E(xc)   XCENC  =         7.34824967
  PAW double counting   =      1562.26476021    -1580.54996749
  entropy T*S    EENTRO =         0.00210488
  eigenvalues    EBANDS =        79.41897868
  atomic energy  EATOM  =      1188.57490811
  Solvation  Ediel_sol  =         0.00000000
  ---------------------------------------------------
  free energy    TOTEN  =       -15.89998712 eV

  energy without entropy =      -15.90209200  energy(sigma->0) =      -15.90068875


--------------------------------------------------------------------------------------------------------




--------------------------------------- Iteration      1(  11)  ---------------------------------------


    POTLOK:  cpu time    0.0034: real time    0.0034
    SETDIJ:  cpu time    0.0021: real time    0.0021
     EDDAV:  cpu time    0.7376: real time    0.7377
       DOS:  cpu time    0.0067: real time    0.0067
    CHARGE:  cpu time    0.0196: real time    0.0196
    MIXING:  cpu time    0.0002: real time    0.0002
    --------------------------------------------
      LOOP:  cpu time    0.7697: real time    0.7697

 eigenvalue-minimisations  :  8712
 total energy-change (2. order) : 0.1286433E-04  (-0.3761305E-07)
 number of electron      15.9999912 magnetization 
 augmentation part        8.2177344 magnetization 

 Broyden mixing:
  rms(total) = 0.20651E-03    rms(broyden)= 0.20639E-03
  rms(prec ) = 0.31960E-03
  weight for this iteration     100.00

 eigenvalues of (default mixing * dielectric matrix)
  average eigenvalue GAMMA=   1.5609
  2.5805  2.5805  0.8242  1.0032  1.0032  1.3739

 Free energy of the ion-electron system (eV)
  ---------------------------------------------------
  alpha Z        PSCENC =       144.90805472
  Ewald energy   TEWEN  =     -1253.34132160
  -Hartree energ DENC   =      -164.59043484
  -exchange      EXHF   =         0.00000000
  -V(xc)+E(xc)   XCENC  =         7.35128236
  PAW double counting   =      1561.58116798    -1579.80454770
  entropy T*S    EENTRO =         0.00210459
  eigenvalues    EBANDS =        79.41881213
  atomic energy  EATOM  =      1188.57490811
  Solvation  Ediel_sol  =         0.00000000
  ---------------------------------------------------
  free energy    TOTEN  =       -15.89997426 eV

  energy without entropy =      -15.90207884  energy(sigma->0) =      -15.90067579


--------------------------------------------------------------------------------------------------------




--------------------------------------- Iteration      1(  12)  ---------------------------------------


    POTLOK:  cpu time    0.0034: real time    0.0034
    SETDIJ:  cpu time    0.0021: real time    0.0021
     EDDAV:  cpu time    0.5785: real time    0.5786
       DOS:  cpu time    0.0067: real time    0.0067
    CHARGE:  cpu time    0.0194: real time    0.0194
    MIXING:  cpu time    0.0003: real time    0.0003
    --------------------------------------------
      LOOP:  cpu time    0.6104: real time    0.6104

 eigenvalue-minimisations  :  6184
 total energy-change (2. order) : 0.1332700E-05  (-0.7665927E-08)
 number of electron      15.9999912 magnetization 
 augmentation part        8.2177086 magnetization 

 Broyden mixing:
  rms(total) = 0.11565E-03    rms(broyden)= 0.11558E-03
  rms(prec ) = 0.12539E-03
  weight for this iteration     100.00

 eigenvalues of (default mixing * dielectric matrix)
  average eigenvalue GAMMA=   1.6163
  2.6023  2.4329  2.1134  0.8242  1.0002  1.0002  1.3409

 Free energy of the ion-electron system (eV)
  ---------------------------------------------------
  alpha Z        PSCENC =       144.90805472
  Ewald energy   TEWEN  =     -1253.34132160
  -Hartree energ DENC   =      -164.59905124
  -exchange      EXHF   =         0.00000000
  -V(xc)+E(xc)   XCENC  =         7.35167542
  PAW double counting   =      1561.52844293    -1579.74344556
  entropy T*S    EENTRO =         0.00210463
  eigenvalues    EBANDS =        79.41865968
  atomic energy  EATOM  =      1188.57490811
  Solvation  Ediel_sol  =         0.00000000
  ---------------------------------------------------
  free energy    TOTEN  =       -15.89997292 eV

  energy without entropy =      -15.90207755  energy(sigma->0) =      -15.90067447


--------------------------------------------------------------------------------------------------------




--------------------------------------- Iteration      1(  13)  ---------------------------------------


    POTLOK:  cpu time    0.0034: real time    0.0034
    SETDIJ:  cpu time    0.0022: real time    0.0022
     EDDAV:  cpu time    0.5444: real time    0.5445
       DOS:  cpu time    0.0063: real time    0.0063
    --------------------------------------------
      LOOP:  cpu time    0.5563: real time    0.5563

 eigenvalue-minimisations  :  5400
 total energy-change (2. order) :-0.3846274E-06  (-0.6437416E-09)
 number of electron      15.9999912 magnetization 
 augmentation part        8.2177086 magnetization 

 Free energy of the ion-electron system (eV)
  ---------------------------------------------------
  alpha Z        PSCENC =       144.90805472
  Ewald energy   TEWEN  =     -1253.34132160
  -Hartree energ DENC   =      -164.59746978
  -exchange      EXHF   =         0.00000000
  -V(xc)+E(xc)   XCENC  =         7.35159919
  PAW double counting   =      1561.60457246    -1579.82143841
  entropy T*S    EENTRO =         0.00210461
  eigenvalues    EBANDS =        79.41901740
  atomic energy  EATOM  =      1188.57490811
  Solvation  Ediel_sol  =         0.00000000
  ---------------------------------------------------
  free energy    TOTEN  =       -15.89997331 eV

  energy without entropy =      -15.90207792  energy(sigma->0) =      -15.90067485


--------------------------------------------------------------------------------------------------------




 average (electrostatic) potential at core
  the test charge radii are     1.0103
  (the norm of the test charge is              1.0000)
       1 -41.9207       2 -41.9208
 
 
 
 E-fermi :   7.6812     XC(G=0): -14.1767     alpha+bet :-16.2496

 Fermi energy:         7.6811694773

 k-point     1 :       0.0000    0.0000    0.0000
  band No.  band energies     occupation 
      1      -1.6032      2.00000
      2       2.2710      2.00000
      3       5.1314      2.00000
      4       5.9501      2.00000
      5       5.9501      2.00000
      6       6.2637      2.00000
      7       6.2638      2.00000
      8       6.7035      2.00000
      9       7.4225      2.06960
     10       7.4225      2.06960
     11       8.5069     -0.00000
     12       8.5069     -0.00000
     13      15.3294      0.00000
     14      31.2667      0.00000
     15      31.9537      0.00000
     16      34.9756      0.00000
     17      38.0460      0.00000
     18      38.0461      0.00000
     19      38.5303      0.00000
     20      38.7772      0.00000
     21      38.7774      0.00000
     22      41.2356      0.00000
     23      41.2356      0.00000
     24      42.2491      0.00000
     25      45.0746      0.00000
     26      45.0746      0.00000
     27      45.7908      0.00000
     28      49.3366      0.00000
     29      49.3370      0.00000
     30      51.2521      0.00000
     31      51.2523      0.00000
     32      53.6144      0.00000
     33      61.1682      0.00000
     34      63.1187      0.00000
     35      63.1189      0.00000
     36      63.1197      0.00000
     37      64.1878      0.00000
     38      65.7838      0.00000
     39      65.7848      0.00000
     40      67.1255      0.00000

 k-point     2 :       0.0909   -0.0000    0.0000
  band No.  band energies     occupation 
      1      -1.2503      2.00000
      2       2.5432      2.00000
      3       5.1807      2.00000
      4       5.8510      2.00000
      5       5.8777      2.00000
      6       6.1334      2.00000
      7       6.1661      2.00000
      8       6.4666      2.00000
      9       7.2383      2.00754
     10       7.3009      2.02169
     11       8.5393     -0.00000
     12       9.6137     -0.00000
     13      15.3538      0.00000
     14      30.8196      0.00000
     15      31.6732      0.00000
     16      33.5110      0.00000
     17      35.1213      0.00000
     18      36.9775      0.00000
     19      37.2060      0.00000
     20      38.4272      0.00000
     21      40.6306      0.00000
     22      41.5069      0.00000
     23      41.8865      0.00000
     24      42.5065      0.00000
     25      46.3122      0.00000
     26      46.6683      0.00000
     27      46.6863      0.00000
     28      47.0275      0.00000
     29      50.3508      0.00000
     30      52.6290      0.00000
     31      53.7603      0.00000
     32      55.6037      0.00000
     33      60.1228      0.00000
     34      62.0691      0.00000
     35      62.1108      0.00000
     36      62.7339      0.00000
     37      62.9776      0.00000
     38      66.6267      0.00000
     39      67.1684      0.00000
     40      67.2200      0.00000

 k-point     3 :       0.1818   -0.0000    0.0000
  band No.  band energies     occupation 
      1      -0.2574      2.00000
      2       3.1775      2.00000
      3       4.7727      2.00000
      4       5.0627      2.00000
      5       5.6146      2.00000
      6       6.2308      2.00000
      7       6.7643      2.00000
      8       6.8053      2.00000
      9       7.0112      2.00002
     10       7.0238      2.00003
     11       8.5856     -0.00000
     12      11.4977     -0.00000
     13      15.4517      0.00000
     14      27.0995      0.00000
     15      32.1402      0.00000
     16      32.2254      0.00000
     17      32.2381      0.00000
     18      32.9770      0.00000
     19      37.5516      0.00000
     20      38.3552      0.00000
     21      38.8972      0.00000
     22      39.6936      0.00000
     23      42.8119      0.00000
     24      43.6294      0.00000
     25      46.7426      0.00000
     26      47.7062      0.00000
     27      49.0666      0.00000
     28      51.3372      0.00000
     29      53.3577      0.00000
     30      55.6472      0.00000
     31      56.4364      0.00000
     32      58.6486      0.00000
     33      58.8860      0.00000
     34      59.4524      0.00000
     35      60.3631      0.00000
     36      61.6436      0.00000
     37      63.9593      0.00000
     38      67.0973      0.00000
     39      67.4640      0.00000
     40      67.5825      0.00000

 k-point     4 :       0.2727    0.0000    0.0000
  band No.  band energies     occupation 
      1       1.1280      2.00000
      2       3.4454      2.00000
      3       3.9041      2.00000
      4       5.0634      2.00000
      5       5.4231      2.00000
      6       6.2700      2.00000
      7       6.6831      2.00000
      8       7.0646      2.00012
      9       7.6163      1.51816
     10       7.8057      0.14011
     11       8.6057     -0.00000
     12      13.6425      0.00000
     13      15.6856      0.00000
     14      22.9947      0.00000
     15      28.6126      0.00000
     16      29.5975      0.00000
     17      30.5241      0.00000
     18      33.0868      0.00000
     19      35.8690      0.00000
     20      38.3925      0.00000
     21      39.0112      0.00000
     22      39.2728      0.00000
     23      40.2956      0.00000
     24      43.6828      0.00000
     25      50.3957      0.00000
     26      51.6691      0.00000
     27      52.7088      0.00000
     28      53.7187      0.00000
     29      54.3304      0.00000
     30      56.1788      0.00000
     31      57.4491      0.00000
     32      59.2948      0.00000
     33      60.1344      0.00000
     34      60.1976      0.00000
     35      61.5706      0.00000
     36      64.0113      0.00000
     37      64.6931      0.00000
     38      67.0126      0.00000
     39      67.8215      0.00000
     40      68.3524      0.00000

 k-point     5 :       0.3636   -0.0000    0.0000
  band No.  band energies     occupation 
      1       2.2992      2.00000
      2       3.1355      2.00000
      3       3.3263      2.00000
      4       5.2298      2.00000
      5       5.7943      2.00000
      6       5.9420      2.00000
      7       6.4109      2.00000
      8       8.4416     -0.00000
      9       8.4783     -0.00000
     10       8.5936     -0.00000
     11       8.5999     -0.00000
     12      15.6603      0.00000
     13      15.9358      0.00000
     14      19.9389      0.00000
     15      25.2096      0.00000
     16      27.6011      0.00000
     17      27.6510      0.00000
     18      32.3438      0.00000
     19      34.8609      0.00000
     20      38.1456      0.00000
     21      38.5810      0.00000
     22      40.1134      0.00000
     23      40.3400      0.00000
     24      43.7207      0.00000
     25      50.8947      0.00000
     26      52.6795      0.00000
     27      53.7347      0.00000
     28      56.9698      0.00000
     29      56.9796      0.00000
     30      57.2168      0.00000
     31      58.9228      0.00000
     32      60.7047      0.00000
     33      61.2732      0.00000
     34      61.5594      0.00000
     35      63.4694      0.00000
     36      64.9649      0.00000
     37      66.7917      0.00000
     38      67.5582      0.00000
     39      67.8950      0.00000
     40      68.8741      0.00000

 k-point     6 :       0.4545    0.0000    0.0000
  band No.  band energies     occupation 
      1       2.6695      2.00000
      2       2.9079      2.00000
      3       3.0414      2.00000
      4       5.5191      2.00000
      5       5.8561      2.00000
      6       6.2048      2.00000
      7       6.2594      2.00000
      8       8.5907     -0.00000
      9       9.0160     -0.00000
     10       9.1237     -0.00000
     11      10.2750     -0.00000
     12      13.8946      0.00000
     13      18.1079      0.00000
     14      19.7771      0.00000
     15      22.5088      0.00000
     16      24.8054      0.00000
     17      26.5598      0.00000
     18      31.7266      0.00000
     19      34.5425      0.00000
     20      36.9402      0.00000
     21      38.3918      0.00000
     22      41.1133      0.00000
     23      42.7748      0.00000
     24      43.1865      0.00000
     25      47.5016      0.00000
     26      53.2147      0.00000
     27      54.5479      0.00000
     28      58.2402      0.00000
     29      59.2119      0.00000
     30      60.0941      0.00000
     31      61.1864      0.00000
     32      61.9782      0.00000
     33      62.0208      0.00000
     34      63.6866      0.00000
     35      64.7282      0.00000
     36      66.2238      0.00000
     37      67.2377      0.00000
     38      67.3056      0.00000
     39      69.2576      0.00000
     40      69.8402      0.00000

 k-point     7 :       0.0909    0.0909    0.0000
  band No.  band energies     occupation 
      1      -0.5741      2.00000
      2       3.0193      2.00000
      3       5.0642      2.00000
      4       5.0848      2.00000
      5       5.8666      2.00000
      6       5.8843      2.00000
      7       6.6045      2.00000
      8       6.8043      2.00000
      9       6.8983      2.00000
     10       7.2433      2.00827
     11       8.5384     -0.00000
     12      10.9716     -0.00000
     13      15.4188      0.00000
     14      28.8332      0.00000
     15      30.2934      0.00000
     16      32.3170      0.00000
     17      34.0708      0.00000
     18      35.9587      0.00000
     19      36.0922      0.00000
     20      37.3935      0.00000
     21      38.1819      0.00000
     22      43.3606      0.00000
     23      43.6507      0.00000
     24      44.4816      0.00000
     25      45.1907      0.00000
     26      45.7043      0.00000
     27      45.9744      0.00000
     28      51.9222      0.00000
     29      53.9925      0.00000
     30      54.4525      0.00000
     31      54.5894      0.00000
     32      58.1544      0.00000
     33      59.0143      0.00000
     34      60.0112      0.00000
     35      61.1276      0.00000
     36      61.7242      0.00000
     37      63.1465      0.00000
     38      66.9425      0.00000
     39      67.8018      0.00000
     40      67.8777      0.00000

 k-point     8 :       0.1818    0.0909    0.0000
  band No.  band energies     occupation 
      1       0.6464      2.00000
      2       3.6140      2.00000
      3       4.2198      2.00000
      4       4.7929      2.00000
      5       5.5299      2.00000
      6       6.3007      2.00000
      7       6.3469      2.00000
      8       6.9562      2.00000
      9       7.3893      2.05885
     10       7.7053      0.79730
     11       8.5214     -0.00000
     12      12.8932     -0.00000
     13      15.6318      0.00000
     14      25.1001      0.00000
     15      27.8280      0.00000
     16      30.4784      0.00000
     17      32.5703      0.00000
     18      33.4573      0.00000
     19      36.2626      0.00000
     20      36.6024      0.00000
     21      37.8096      0.00000
     22      42.4147      0.00000
     23      42.7043      0.00000
     24      44.2465      0.00000
     25      47.2614      0.00000
     26      48.0597      0.00000
     27      50.2753      0.00000
     28      54.1453      0.00000
     29      55.9424      0.00000
     30      56.5027      0.00000
     31      57.1077      0.00000
     32      59.0518      0.00000
     33      59.5796      0.00000
     34      60.1023      0.00000
     35      61.2092      0.00000
     36      61.5936      0.00000
     37      63.9656      0.00000
     38      67.0324      0.00000
     39      68.3580      0.00000
     40      68.4442      0.00000

 k-point     9 :       0.2727    0.0909    0.0000
  band No.  band energies     occupation 
      1       2.0320      2.00000
      2       3.5069      2.00000
      3       3.5868      2.00000
      4       4.9080      2.00000
      5       5.6269      2.00000
      6       5.8706      2.00000
      7       6.5553      2.00000
      8       7.2237      2.00568
      9       8.2467     -0.00047
     10       8.4969     -0.00000
     11       8.7548     -0.00000
     12      15.0899      0.00000
     13      16.0092      0.00000
     14      21.2864      0.00000
     15      26.0551      0.00000
     16      27.0058      0.00000
     17      30.0404      0.00000
     18      31.5325      0.00000
     19      35.8764      0.00000
     20      37.1860      0.00000
     21      37.7603      0.00000
     22      41.6566      0.00000
     23      42.0779      0.00000
     24      45.1767      0.00000
     25      49.2885      0.00000
     26      51.8348      0.00000
     27      53.0303      0.00000
     28      53.1729      0.00000
     29      55.5457      0.00000
     30      57.6167      0.00000
     31      58.2677      0.00000
     32      60.6700      0.00000
     33      61.5865      0.00000
     34      61.7044      0.00000
     35      62.8474      0.00000
     36      64.5001      0.00000
     37      66.7377      0.00000
     38      67.4343      0.00000
     39      67.6576      0.00000
     40      68.7221      0.00000

 k-point    10 :       0.3636    0.0909    0.0000
  band No.  band energies     occupation 
      1       2.8124      2.00000
      2       3.1730      2.00000
      3       3.2095      2.00000
      4       5.3773      2.00000
      5       5.5850      2.00000
      6       6.0651      2.00000
[...]
     18      28.4273      0.00000
     19      33.9460      0.00000
     20      34.7780      0.00000
     21      38.3304      0.00000
     22      38.7693      0.00000
     23      43.9621      0.00000
     24      45.0283      0.00000
     25      50.8044      0.00000
     26      52.5746      0.00000
     27      54.9252      0.00000
     28      56.0164      0.00000
     29      57.7254      0.00000
     30      59.2618      0.00000
     31      61.4218      0.00000
     32      61.4759      0.00000
     33      63.1932      0.00000
     34      63.5483      0.00000
     35      65.1159      0.00000
     36      65.4421      0.00000
     37      66.1582      0.00000
     38      66.5773      0.00000
     39      69.4853      0.00000
     40      70.0098      0.00000

 k-point    91 :       0.4545    0.0909    0.4545
  band No.  band energies     occupation 
      1       2.5639      2.00000
      2       2.7094      2.00000
      3       3.9742      2.00000
      4       4.0511      2.00000
      5       6.5693      2.00000
      6       6.9870      2.00001
      7       7.7014      0.82979
      8       8.0366     -0.03066
      9       8.6715     -0.00000
     10       8.7218     -0.00000
     11      11.2307     -0.00000
     12      11.7411     -0.00000
     13      18.0072      0.00000
     14      18.0605      0.00000
     15      26.4835      0.00000
     16      27.0595      0.00000
     17      27.9337      0.00000
     18      28.2958      0.00000
     19      33.5321      0.00000
     20      33.8648      0.00000
     21      37.7280      0.00000
     22      37.7292      0.00000
     23      44.0498      0.00000
     24      45.1327      0.00000
     25      50.9625      0.00000
     26      52.7100      0.00000
     27      57.0338      0.00000
     28      58.5983      0.00000
     29      59.5979      0.00000
     30      59.8567      0.00000
     31      60.1479      0.00000
     32      60.2746      0.00000
     33      63.4400      0.00000
     34      63.9034      0.00000
     35      65.9045      0.00000
     36      66.2390      0.00000
     37      67.1782      0.00000
     38      67.3306      0.00000
     39      70.5384      0.00000
     40      70.8694      0.00000

 k-point    92 :       0.1818    0.1818    0.4545
  band No.  band energies     occupation 
      1       2.6903      2.00000
      2       2.9397      2.00000
      3       4.6471      2.00000
      4       4.6874      2.00000
      5       5.1692      2.00000
      6       5.2047      2.00000
      7       6.9579      2.00000
      8       7.2051      2.00388
      9       8.4256     -0.00000
     10       8.6100     -0.00000
     11       9.1402     -0.00000
     12       9.6637     -0.00000
     13      24.0373      0.00000
     14      24.4698      0.00000
     15      25.0481      0.00000
     16      25.8332      0.00000
     17      26.4247      0.00000
     18      27.3558      0.00000
     19      38.0506      0.00000
     20      39.2004      0.00000
     21      40.0163      0.00000
     22      41.2202      0.00000
     23      42.8918      0.00000
     24      43.0758      0.00000
     25      49.4282      0.00000
     26      49.8732      0.00000
     27      52.9806      0.00000
     28      54.3624      0.00000
     29      56.2514      0.00000
     30      56.8558      0.00000
     31      58.8937      0.00000
     32      59.3754      0.00000
     33      61.0834      0.00000
     34      61.1392      0.00000
     35      62.9851      0.00000
     36      62.9973      0.00000
     37      65.7059      0.00000
     38      67.3460      0.00000
     39      68.3867      0.00000
     40      68.8344      0.00000

 k-point    93 :       0.2727    0.1818    0.4545
  band No.  band energies     occupation 
      1       3.0423      2.00000
      2       3.1455      2.00000
      3       4.4004      2.00000
      4       4.5962      2.00000
      5       5.5597      2.00000
      6       5.7121      2.00000
      7       6.8286      2.00000
      8       7.0720      2.00014
      9       8.5371     -0.00000
     10       8.8317     -0.00000
     11      10.7765     -0.00000
     12      11.2934     -0.00000
     13      21.1681      0.00000
     14      21.7236      0.00000
     15      23.9904      0.00000
     16      24.7397      0.00000
     17      26.4706      0.00000
     18      28.1587      0.00000
     19      35.7116      0.00000
     20      37.3158      0.00000
     21      38.5104      0.00000
     22      40.0670      0.00000
     23      43.8306      0.00000
     24      44.3285      0.00000
     25      51.0138      0.00000
     26      51.5371      0.00000
     27      54.2266      0.00000
     28      56.1277      0.00000
     29      57.9419      0.00000
     30      59.4200      0.00000
     31      60.6718      0.00000
     32      61.2220      0.00000
     33      62.3257      0.00000
     34      62.3813      0.00000
     35      63.5980      0.00000
     36      64.2024      0.00000
     37      65.6238      0.00000
     38      66.7861      0.00000
     39      69.1985      0.00000
     40      69.5182      0.00000

 k-point    94 :       0.3636    0.1818    0.4545
  band No.  band energies     occupation 
      1       3.0643      2.00000
      2       3.2207      2.00000
      3       4.2823      2.00000
      4       4.4642      2.00000
      5       5.6980      2.00000
      6       6.0335      2.00000
      7       7.1763      2.00208
      8       7.2922      2.01902
      9       8.5158     -0.00000
     10       8.7045     -0.00000
     11      12.5877     -0.00000
     12      13.0303     -0.00000
     13      18.4740      0.00000
     14      18.8426      0.00000
     15      23.3737      0.00000
     16      24.1146      0.00000
     17      28.0738      0.00000
     18      29.1867      0.00000
     19      34.0103      0.00000
     20      35.0872      0.00000
     21      37.5431      0.00000
     22      39.1131      0.00000
     23      44.5037      0.00000
     24      44.9068      0.00000
     25      54.2762      0.00000
     26      54.9287      0.00000
     27      55.1842      0.00000
     28      56.4797      0.00000
     29      58.6040      0.00000
     30      59.3461      0.00000
     31      59.6829      0.00000
     32      60.3319      0.00000
     33      62.4275      0.00000
     34      62.8978      0.00000
     35      65.0687      0.00000
     36      65.3497      0.00000
     37      67.3046      0.00000
     38      67.4425      0.00000
     39      68.3989      0.00000
     40      69.0628      0.00000

 k-point    95 :       0.2727    0.2727    0.4545
  band No.  band energies     occupation 
      1       3.4919      2.00000
      2       3.5620      2.00000
      3       4.5354      2.00000
      4       4.7608      2.00000
      5       5.2119      2.00000
      6       5.4300      2.00000
      7       6.6843      2.00000
      8       6.8928      2.00000
      9       8.5295     -0.00000
     10       8.7364     -0.00000
     11      13.0523     -0.00000
     12      13.5749      0.00000
     13      19.5579      0.00000
     14      19.9959      0.00000
     15      21.4746      0.00000
     16      21.8854      0.00000
     17      28.2690      0.00000
     18      29.8706      0.00000
     19      34.0632      0.00000
     20      35.4524      0.00000
     21      37.2183      0.00000
     22      38.3510      0.00000
     23      46.9228      0.00000
     24      47.3583      0.00000
     25      51.3809      0.00000
     26      51.4515      0.00000
     27      56.8238      0.00000
     28      58.4235      0.00000
     29      58.8420      0.00000
     30      59.2128      0.00000
     31      60.8928      0.00000
     32      60.9676      0.00000
     33      61.3042      0.00000
     34      61.3557      0.00000
     35      63.8557      0.00000
     36      64.4240      0.00000
     37      67.1367      0.00000
     38      67.1773      0.00000
     39      68.0400      0.00000
     40      68.1097      0.00000

 k-point    96 :       0.3636    0.2727    0.4545
  band No.  band energies     occupation 
      1       3.7177      2.00000
      2       3.8566      2.00000
      3       4.4719      2.00000
      4       4.5704      2.00000
      5       5.2025      2.00000
      6       5.3462      2.00000
      7       6.7324      2.00000
      8       6.8882      2.00000
      9       8.5118     -0.00000
     10       8.5858     -0.00000
     11      14.9603      0.00000
     12      15.1114      0.00000
     13      17.8069      0.00000
     14      18.1503      0.00000
     15      20.8152      0.00000
     16      21.2555      0.00000
     17      30.0036      0.00000
     18      30.7962      0.00000
     19      33.1002      0.00000
     20      33.3579      0.00000
     21      36.9423      0.00000
     22      37.7665      0.00000
     23      48.1605      0.00000
     24      48.7978      0.00000
     25      52.9777      0.00000
     26      53.4228      0.00000
     27      55.8072      0.00000
     28      56.2000      0.00000
     29      58.4963      0.00000
     30      59.0764      0.00000
     31      60.7612      0.00000
     32      61.2473      0.00000
     33      61.6413      0.00000
     34      62.1539      0.00000
     35      63.1535      0.00000
     36      64.4293      0.00000
     37      65.9842      0.00000
     38      66.6213      0.00000
     39      69.6106      0.00000
     40      69.8421      0.00000


--------------------------------------------------------------------------------------------------------


 soft charge-density along one line, spin component           1
         0         1         2         3         4         5         6         7         8         9
x     7.7823    0.0000    0.0760   -0.1317   -0.0533   -0.0923    0.0210   -0.0000    0.0012   -0.0021
x     0.0000    0.0000
y     7.7823    0.0000    0.0760    0.1317   -0.0533    0.0923    0.0210    0.0000    0.0012    0.0021
y     0.0000    0.0000
z     7.7823    0.0000    0.0000   -0.0000    0.4941    0.0000    0.0000    0.0000   -0.1592   -0.0000
z     0.0000   -0.0000    0.0190   -0.0000    0.0000   -0.0000    0.0070   -0.0000    0.0000    0.0000
 total charge-density along one line
x    16.0000    0.0000    1.4323   -2.4808    0.2747    0.4758    0.0144    0.0000    0.0018   -0.0030
x    -0.0002   -0.0003    0.0003   -0.0000   -0.0001    0.0001    0.0000    0.0000   -0.0001    0.0000
x     0.0000    0.0000
y    16.0000    0.0000    1.4323    2.4808    0.2747   -0.4758    0.0144   -0.0000    0.0018    0.0030
y    -0.0002    0.0003    0.0003    0.0000   -0.0001   -0.0001    0.0000   -0.0000   -0.0001   -0.0000
y     0.0000   -0.0000
z    16.0000    0.0000    0.0000    0.0000    6.0807   -0.0000    0.0000    0.0000    1.3523   -0.0000
z     0.0000   -0.0000    0.0464   -0.0000    0.0000   -0.0000    0.0040   -0.0000    0.0000    0.0000
z     0.0017    0.0000   -0.0000    0.0000   -0.0008    0.0000   -0.0000    0.0000    0.0005    0.0000
z    -0.0000    0.0000   -0.0003    0.0000    0.0000   -0.0000    0.0003   -0.0000
 
 pseudopotential strength for first ion, spin component:           1
 -3.987  -0.000  -0.000   0.000  -0.000  -4.564  -0.000  -0.000
 -0.000  -3.970  -0.000  -0.000  -0.000  -0.000  -4.547  -0.000
 -0.000  -0.000  -3.979   0.000  -0.000  -0.000  -0.000  -4.555
  0.000  -0.000   0.000  -3.970  -0.000   0.000  -0.000   0.000
 -0.000  -0.000  -0.000  -0.000  -3.987  -0.000  -0.000  -0.000
 -4.564  -0.000  -0.000   0.000  -0.000  -5.097  -0.000  -0.000
 -0.000  -4.547  -0.000  -0.000  -0.000  -0.000  -5.081  -0.000
 -0.000  -0.000  -4.555   0.000  -0.000  -0.000  -0.000  -5.089
  0.000  -0.000   0.000  -4.547  -0.000   0.000  -0.000   0.000
 -0.000  -0.000  -0.000  -0.000  -4.564  -0.000  -0.000  -0.000
  0.000   0.000   0.000   0.000  -0.000   0.000   0.000  -0.000
  0.000   0.000   0.001   0.000  -0.000   0.000   0.000   0.000
 -0.000   0.000  -0.000   0.000  -0.001  -0.000   0.000  -0.000
  0.000  -0.000   0.000   0.000   0.000   0.000  -0.000   0.000
 -0.001   0.000   0.000   0.000  -0.000  -0.001   0.000   0.000
 -0.000   0.000   0.000   0.000  -0.001  -0.000   0.000   0.000
  0.000  -0.000   0.000   0.000   0.000   0.000  -0.000   0.000
 -0.001   0.000   0.000   0.000  -0.000  -0.001   0.000   0.000
 total augmentation occupancy for first ion, spin component:           1
  1.711   0.000   0.000   0.000  -0.000  -1.210   0.000  -0.000   0.000   0.000   0.000  -0.000   0.000  -0.000   0.037  -0.000
 -0.000   2.257   0.000  -0.000   0.000   0.000  -1.470   0.000   0.000   0.000   0.000   0.000   0.000   0.000  -0.000   0.000
  0.000  -0.000   1.362   0.000  -0.000  -0.000  -0.000  -0.890   0.000   0.000   0.064  -0.015  -0.000   0.000   0.000   0.000
  0.000  -0.000  -0.000   2.257   0.000   0.000   0.000  -0.000  -1.470   0.000   0.000   0.000   0.000  -0.000  -0.000   0.000
 -0.000  -0.000  -0.000  -0.000   1.711   0.000   0.000   0.000  -0.000  -1.210   0.000  -0.000   0.037   0.000  -0.000  -0.002
 -1.210   0.000  -0.000   0.000   0.000   2.088   0.000   0.000  -0.000   0.000  -0.000   0.000  -0.000  -0.000  -0.050   0.000
  0.000  -1.470  -0.000   0.000   0.000   0.000   2.025   0.000  -0.000   0.000  -0.000  -0.000   0.000   0.000   0.000   0.000
 -0.000   0.000  -0.890   0.000   0.000   0.000  -0.000   1.777   0.000  -0.000  -0.154   0.011   0.000   0.000  -0.000  -0.000
  0.000   0.000   0.000  -1.470   0.000   0.000  -0.000   0.000   2.025   0.000   0.000   0.000   0.000  -0.000  -0.000   0.000
  0.000   0.000   0.000   0.000  -1.210   0.000   0.000  -0.000   0.000   2.088  -0.000   0.000  -0.050  -0.000   0.000   0.003
  0.000   0.000   0.064   0.000   0.000  -0.000  -0.000  -0.154  -0.000  -0.000   2.873  -0.337   0.000   0.000   0.000   0.000
 -0.000  -0.000  -0.015   0.000  -0.000   0.000   0.000   0.011   0.000   0.000  -0.337   0.045   0.000   0.000  -0.000  -0.000
  0.000  -0.000  -0.000   0.000   0.037  -0.000   0.000   0.000   0.000  -0.050   0.000   0.000   0.390  -0.000  -0.000  -0.030
 -0.000   0.000   0.000  -0.000  -0.000   0.000   0.000   0.000  -0.000  -0.000   0.000   0.000  -0.000   0.360   0.000  -0.000
  0.037   0.000   0.000  -0.000  -0.000  -0.050   0.000  -0.000   0.000   0.000   0.000  -0.000  -0.000  -0.000   0.390   0.000
 -0.000   0.000   0.000   0.000  -0.002   0.000  -0.000  -0.000   0.000   0.003   0.000   0.000  -0.030  -0.000   0.000   0.003
  0.000   0.000   0.000  -0.000  -0.000   0.000  -0.000   0.000   0.000  -0.000   0.000   0.000   0.000  -0.033  -0.000  -0.000
 -0.002  -0.000  -0.000  -0.000   0.000   0.003  -0.000   0.000  -0.000  -0.000   0.000  -0.000   0.000   0.000  -0.030  -0.000


------------------------ aborting loop because EDIFF is reached ----------------------------------------


    CHARGE:  cpu time    0.0198: real time    0.0198
    FORLOC:  cpu time    0.0002: real time    0.0002
    FORNL :  cpu time    0.0917: real time    0.0917
    STRESS:  cpu time    0.1433: real time    0.1433
    FORCOR:  cpu time    0.0035: real time    0.0035
    FORHAR:  cpu time    0.0008: real time    0.0008
    MIXING:  cpu time    0.0002: real time    0.0002

  FORCE on cell =-STRESS in cart. coord.  units (eV):
  Direction    XX          YY          ZZ          XY          YZ          ZX
  --------------------------------------------------------------------------------------
  Alpha Z   144.90805   144.90805   144.90805
  Ewald    -398.53943  -398.53943  -456.26328     0.00000     0.00000    -0.00000
  Hartree    61.89516    61.89516    40.80688    -0.00000    -0.00000    -0.00000
  E(xc)     -79.36514   -79.36514   -79.03547     0.00015     0.00000    -0.00000
  Local      99.65282    99.65299   174.72661    -0.00073     0.00000     0.00000
  n-local   -51.01383   -50.31476   -53.47086    -4.66321     1.38495     0.91171
  augment    75.26638    75.26608    75.84938     0.00087     0.00000     0.00000
  Kinetic   155.71985   149.19255   149.98389     1.70022    -0.86417     0.24709
  Fock        0.00000     0.00000     0.00000     0.00000     0.00000     0.00000
  -------------------------------------------------------------------------------------
  Total       5.60969     5.60969    -2.49481    -0.00000    -0.00000     0.00000
  in kB     471.10476   471.10476  -209.51518    -0.00000    -0.00000     0.00000
  external pressure =      244.23 kB  Pullay stress =        0.00 kB


 VOLUME and BASIS-vectors are now :
 -----------------------------------------------------------------------------
  energy-cutoff  :      280.00
  volume of cell :       19.08
      direct lattice vectors                 reciprocal lattice vectors
     2.306700000  0.000000000  0.000000000     0.433519747  0.250292743  0.000000000
    -1.153350000  1.997660799  0.000000000     0.000000000  0.500585485  0.000000000
     0.000000000  0.000000000  4.140180000     0.000000000  0.000000000  0.241535392

  length of vectors
     2.306700000  2.306700000  4.140180000     0.500585485  0.500585485  0.241535392


 FORCES acting on ions
    electron-ion (+dipol)            ewald-force                    non-local-force                 convergence-correction
 -----------------------------------------------------------------------------------------------
   0.644E-06 -.338E-06 0.503E-14   0.541E-12 -.322E-12 -.265E-13   0.108E-16 -.140E-16 -.237E-19   -.757E-09 0.440E-09 -.772E-14
   -.599E-05 0.357E-05 0.265E-12   -.551E-12 0.319E-12 0.265E-13   -.974E-17 0.130E-16 -.343E-19   0.763E-09 -.444E-09 0.569E-13
 -----------------------------------------------------------------------------------------------
   -.534E-05 0.323E-05 0.270E-12   -.973E-14 -.285E-14 -.455E-17   0.107E-17 -.961E-18 -.579E-19   0.595E-11 -.331E-11 0.492E-13
 
 
 POSITION                                       TOTAL-FORCE (eV/Angst)
 -----------------------------------------------------------------------------------
      0.00000      0.00000      0.00000         0.000000     -0.000000      0.000000
      0.00000      1.33177      2.07009        -0.000000      0.000000     -0.000000
 -----------------------------------------------------------------------------------
    total drift:                               -0.000005      0.000003      0.000000


--------------------------------------------------------------------------------------------------------



  FREE ENERGIE OF THE ION-ELECTRON SYSTEM (eV)
  ---------------------------------------------------
  free  energy   TOTEN  =       -15.89997331 eV

  energy  without entropy=      -15.90207792  energy(sigma->0) =      -15.90067485
 


--------------------------------------------------------------------------------------------------------


    POTLOK:  cpu time    0.0056: real time    0.0056


--------------------------------------------------------------------------------------------------------


 writing wavefunctions
     LOOP+:  cpu time   10.4099: real time   10.4314
    4ORBIT:  cpu time    0.0000: real time    0.0000

 total amount of memory used by VASP MPI-rank0    49243. kBytes
=======================================================================

   base      :      30000. kBytes
   nonl-proj :       2979. kBytes
   grid      :        812. kBytes
   one-center:         31. kBytes
   wavefun   :      15421. kBytes
 
  
  
 General timing and accounting informations for this job:
 ========================================================
  
                  Total CPU time used (sec):       10.589
                            User time (sec):       10.541
                          System time (sec):        0.048
                         Elapsed time (sec):       10.599
  
                   Maximum memory used (kb):       53936.
                   Average memory used (kb):          N/A
  
                          Minor page faults:         7135
                          Major page faults:            0
                 Voluntary context switches:           26
