unknown system                          
   1.00000000000000     
     3.635000    0.000000    0.000000
     0.000000    3.635000    0.000000
     0.000000    0.000000    3.635000
   Cu
     4
Direct
  0.000000  0.000000  0.000000
  0.500000  0.500000  0.000000
  0.500000  0.000000  0.500000
  0.000000  0.500000  0.500000
 
   20   20   20
 0.57096419375E+03 0.49726558125E+03 0.32829063505E+03 0.16499604781E+03 0.71749886353E+02
 0.41289198273E+02 0.23525143750E+02 0.10098013278E+02 0.81981867445E+01 0.14155153403E+02
 0.17908363189E+02 0.14155153403E+02 0.81981867445E+01 0.10098013278E+02 0.23525143750E+02
 0.41289198273E+02 0.71749886353E+02 0.16499604781E+03 0.32829063505E+03 0.49726558125E+03
 0.49726558125E+03 0.43206890132E+03 0.28413137861E+03 0.14392196280E+03 0.65756567228E+02
 0.39567224565E+02 0.22210316137E+02 0.96567802449E+01 0.72271914721E+01 0.11402012110E+02
 0.14155153403E+02 0.11402012110E+02 0.72271914721E+01 0.96567802449E+01 0.22210316137E+02
 0.39567224565E+02 0.65756567228E+02 0.14392196280E+03 0.28413137861E+03 0.43206890132E+03
 0.32829063505E+03 0.28413137861E+03 0.18682610454E+03 0.99539129805E+02 0.53469313524E+02
 0.34357234166E+02 0.18488167326E+02 0.86468168780E+01 0.60173406264E+01 0.72271914721E+01
 0.81981867445E+01 0.72271914721E+01 0.60173406264E+01 0.86468168780E+01 0.18488167326E+02
 0.34357234166E+02 0.53469313524E+02 0.99539129805E+02 0.18682610454E+03 0.28413137861E+03
 0.16499604781E+03 0.14392196280E+03 0.99539129805E+02 0.62556369373E+02 0.42003039848E+02
 0.26181624532E+02 0.14025548972E+02 0.88972593606E+01 0.86468168780E+01 0.96567802449E+01
 0.10098013278E+02 0.96567802449E+01 0.86468168780E+01 0.88972593606E+01 0.14025548972E+02
 0.26181624532E+02 0.42003039848E+02 0.62556369373E+02 0.99539129805E+02 0.14392196280E+03
 0.71749886353E+02 0.65756567228E+02 0.53469313524E+02 0.42003039848E+02 0.29706113604E+02
 0.18155334078E+02 0.12705857415E+02 0.14025548972E+02 0.18488167326E+02 0.22210316137E+02
 0.23525143750E+02 0.22210316137E+02 0.18488167326E+02 0.14025548972E+02 0.12705857415E+02
 0.18155334078E+02 0.29706113604E+02 0.42003039848E+02 0.53469313524E+02 0.65756567228E+02
 0.41289198273E+02 0.39567224565E+02 0.34357234166E+02 0.26181624532E+02 0.18155334078E+02
 0.14756216294E+02 0.18155334078E+02 0.26181624532E+02 0.34357234166E+02 0.39567224565E+02
 0.41289198273E+02 0.39567224565E+02 0.34357234166E+02 0.26181624532E+02 0.18155334078E+02
 0.14756216294E+02 0.18155334078E+02 0.26181624532E+02 0.34357234166E+02 0.39567224565E+02
 0.23525143750E+02 0.22210316137E+02 0.18488167326E+02 0.14025548972E+02 0.12705857415E+02
 0.18155334078E+02 0.29706113604E+02 0.42003039848E+02 0.53469313524E+02 0.65756567228E+02
 0.71749886353E+02 0.65756567228E+02 0.53469313524E+02 0.42003039848E+02 0.29706113604E+02
 0.18155334078E+02 0.12705857415E+02 0.14025548972E+02 0.18488167326E+02 0.22210316137E+02
 0.10098013278E+02 0.96567802449E+01 0.86468168780E+01 0.88972593606E+01 0.14025548972E+02
 0.26181624532E+02 0.42003039848E+02 0.62556369373E+02 0.99539129805E+02 0.14392196280E+03
 0.16499604781E+03 0.14392196280E+03 0.99539129805E+02 0.62556369373E+02 0.42003039848E+02
 0.26181624532E+02 0.14025548972E+02 0.88972593606E+01 0.86468168780E+01 0.96567802449E+01
 0.81981867445E+01 0.72271914721E+01 0.60173406264E+01 0.86468168780E+01 0.18488167326E+02
 0.34357234166E+02 0.53469313524E+02 0.99539129805E+02 0.18682610454E+03 0.28413137861E+03
 0.32829063505E+03 0.28413137861E+03 0.18682610454E+03 0.99539129805E+02 0.53469313524E+02
 0.34357234166E+02 0.18488167326E+02 0.86468168780E+01 0.60173406264E+01 0.72271914721E+01
 0.14155153403E+02 0.11402012110E+02 0.72271914721E+01 0.96567802449E+01 0.22210316137E+02
 0.39567224565E+02 0.65756567228E+02 0.14392196280E+03 0.28413137861E+03 0.43206890132E+03
 0.49726558125E+03 0.43206890132E+03 0.28413137861E+03 0.14392196280E+03 0.65756567228E+02
 0.39567224565E+02 0.22210316137E+02 0.96567802449E+01 0.72271914721E+01 0.11402012110E+02
 0.17908363189E+02 0.14155153403E+02 0.81981867445E+01 0.10098013278E+02 0.23525143750E+02
 0.41289198273E+02 0.71749886353E+02 0.16499604781E+03 0.32829063505E+03 0.49726558125E+03
 0.57096419375E+03 0.49726558125E+03 0.32829063505E+03 0.16499604781E+03 0.71749886353E+02
 0.41289198273E+02 0.23525143750E+02 0.10098013278E+02 0.81981867445E+01 0.14155153403E+02
 0.14155153403E+02 0.11402012110E+02 0.72271914721E+01 0.96567802449E+01 0.22210316137E+02
 0.39567224565E+02 0.65756567228E+02 0.14392196280E+03 0.28413137861E+03 0.43206890132E+03
 0.49726558125E+03 0.43206890132E+03 0.28413137861E+03 0.14392196280E+03 0.65756567228E+02
 0.39567224565E+02 0.22210316137E+02 0.96567802449E+01 0.72271914721E+01 0.11402012110E+02
 0.81981867445E+01 0.72271914721E+01 0.60173406264E+01 0.86468168780E+01 0.18488167326E+02
 0.34357234166E+02 0.53469313524E+02 0.99539129805E+02 0.18682610454E+03 0.28413137861E+03
 0.32829063505E+03 0.28413137861E+03 0.18682610454E+03 0.99539129805E+02 0.53469313524E+02
 0.34357234166E+02 0.18488167326E+02 0.86468168780E+01 0.60173406264E+01 0.72271914721E+01
 0.10098013278E+02 0.96567802449E+01 0.86468168780E+01 0.88972593606E+01 0.14025548972E+02
 0.26181624532E+02 0.42003039848E+02 0.62556369373E+02 0.99539129805E+02 0.14392196280E+03
 0.16499604781E+03 0.14392196280E+03 0.99539129805E+02 0.62556369373E+02 0.42003039848E+02
 0.26181624532E+02 0.14025548972E+02 0.88972593606E+01 0.86468168780E+01 0.96567802449E+01
 0.23525143750E+02 0.22210316137E+02 0.18488167326E+02 0.14025548972E+02 0.12705857415E+02
 0.18155334078E+02 0.29706113604E+02 0.42003039848E+02 0.53469313524E+02 0.65756567228E+02
 0.71749886353E+02 0.65756567228E+02 0.53469313524E+02 0.42003039848E+02 0.29706113604E+02
 0.18155334078E+02 0.12705857415E+02 0.14025548972E+02 0.18488167326E+02 0.22210316137E+02
 0.41289198273E+02 0.39567224565E+02 0.34357234166E+02 0.26181624532E+02 0.18155334078E+02
 0.14756216294E+02 0.18155334078E+02 0.26181624532E+02 0.34357234166E+02 0.39567224565E+02
 0.41289198273E+02 0.39567224565E+02 0.34357234166E+02 0.26181624532E+02 0.18155334078E+02
 0.14756216294E+02 0.18155334078E+02 0.26181624532E+02 0.34357234166E+02 0.39567224565E+02
 0.71749886353E+02 0.65756567228E+02 0.53469313524E+02 0.42003039848E+02 0.29706113604E+02
 0.18155334078E+02 0.12705857415E+02 0.14025548972E+02 0.18488167326E+02 0.22210316137E+02
 0.23525143750E+02 0.22210316137E+02 0.18488167326E+02 0.14025548972E+02 0.12705857415E+02
 0.18155334078E+02 0.29706113604E+02 0.42003039848E+02 0.53469313524E+02 0.65756567228E+02
 0.16499604781E+03 0.14392196280E+03 0.99539129805E+02 0.62556369373E+02 0.42003039848E+02
 0.26181624532E+02 0.14025548972E+02 0.88972593606E+01 0.86468168780E+01 0.96567802449E+01
 0.10098013278E+02 0.96567802449E+01 0.86468168780E+01 0.88972593606E+01 0.14025548972E+02
 0.26181624532E+02 0.42003039848E+02 0.62556369373E+02 0.99539129805E+02 0.14392196280E+03
 0.32829063505E+03 0.28413137861E+03 0.18682610454E+03 0.99539129805E+02 0.53469313524E+02
 0.34357234166E+02 0.18488167326E+02 0.86468168780E+01 0.60173406264E+01 0.72271914721E+01
 0.81981867445E+01 0.72271914721E+01 0.60173406264E+01 0.86468168780E+01 0.18488167326E+02
 0.34357234166E+02 0.53469313524E+02 0.99539129805E+02 0.18682610454E+03 0.28413137861E+03
 0.49726558125E+03 0.43206890132E+03 0.28413137861E+03 0.14392196280E+03 0.65756567228E+02
 0.39567224565E+02 0.22210316137E+02 0.96567802449E+01 0.72271914721E+01 0.11402012110E+02
 0.14155153403E+02 0.11402012110E+02 0.72271914721E+01 0.96567802449E+01 0.22210316137E+02
 0.39567224565E+02 0.65756567228E+02 0.14392196280E+03 0.28413137861E+03 0.43206890132E+03
 0.49726558125E+03 0.43206890132E+03 0.28413137861E+03 0.14392196280E+03 0.65756567228E+02
 0.39567224565E+02 0.22210316137E+02 0.96567802449E+01 0.72271914721E+01 0.11402012110E+02
 0.14155153403E+02 0.11402012110E+02 0.72271914721E+01 0.96567802449E+01 0.22210316137E+02
 0.39567224565E+02 0.65756567228E+02 0.14392196280E+03 0.28413137861E+03 0.43206890132E+03
 0.43206890132E+03 0.37473213232E+03 0.24586193373E+03 0.12591362102E+03 0.60493667899E+02
 0.37678095315E+02 0.21010588563E+02 0.94917113983E+01 0.67611259177E+01 0.94821915055E+01
 0.11402012110E+02 0.94821915055E+01 0.67611259177E+01 0.94917113983E+01 0.21010588563E+02
 0.37678095315E+02 0.60493667899E+02 0.12591362102E+03 0.24586193373E+03 0.37473213232E+03
 0.28413137861E+03 0.24586193373E+03 0.16215793912E+03 0.88141837154E+02 0.49553792423E+02
 0.32169025288E+02 0.17633873497E+02 0.90001085297E+01 0.63975039962E+01 0.67611259177E+01
 0.72271914721E+01 0.67611259177E+01 0.63975039962E+01 0.90001085297E+01 0.17633873497E+02
 0.32169025288E+02 0.49553792423E+02 0.88141837154E+02 0.16215793912E+03 0.24586193373E+03
 0.14392196280E+03 0.12591362102E+03 0.88141837154E+02 0.56816908272E+02 0.38860152302E+02
 0.24191719388E+02 0.13565429187E+02 0.93152868290E+01 0.90001085297E+01 0.94917113983E+01
 0.96567802449E+01 0.94917113983E+01 0.90001085297E+01 0.93152868290E+01 0.13565429187E+02
 0.24191719388E+02 0.38860152302E+02 0.56816908272E+02 0.88141837154E+02 0.12591362102E+03
 0.65756567228E+02 0.60493667899E+02 0.49553792423E+02 0.38860152302E+02 0.27126923179E+02
 0.16793237336E+02 0.12194524598E+02 0.13565429187E+02 0.17633873497E+02 0.21010588563E+02
 0.22210316137E+02 0.21010588563E+02 0.17633873497E+02 0.13565429187E+02 0.12194524598E+02
 0.16793237336E+02 0.27126923179E+02 0.38860152302E+02 0.49553792423E+02 0.60493667899E+02
 0.39567224565E+02 0.37678095315E+02 0.32169025288E+02 0.24191719388E+02 0.16793237336E+02
 0.13744253844E+02 0.16793237336E+02 0.24191719388E+02 0.32169025288E+02 0.37678095315E+02
 0.39567224565E+02 0.37678095315E+02 0.32169025288E+02 0.24191719388E+02 0.16793237336E+02
 0.13744253844E+02 0.16793237336E+02 0.24191719388E+02 0.32169025288E+02 0.37678095315E+02
 0.22210316137E+02 0.21010588563E+02 0.17633873497E+02 0.13565429187E+02 0.12194524598E+02
 0.16793237336E+02 0.27126923179E+02 0.38860152302E+02 0.49553792423E+02 0.60493667899E+02
 0.65756567228E+02 0.60493667899E+02 0.49553792423E+02 0.38860152302E+02 0.27126923179E+02
 0.16793237336E+02 0.12194524598E+02 0.13565429187E+02 0.17633873497E+02 0.21010588563E+02
 0.96567802449E+01 0.94917113983E+01 0.90001085297E+01 0.93152868290E+01 0.13565429187E+02
 0.24191719388E+02 0.38860152302E+02 0.56816908272E+02 0.88141837154E+02 0.12591362102E+03
 0.14392196280E+03 0.12591362102E+03 0.88141837154E+02 0.56816908272E+02 0.38860152302E+02
 0.24191719388E+02 0.13565429187E+02 0.93152868290E+01 0.90001085297E+01 0.94917113983E+01
 0.72271914721E+01 0.67611259177E+01 0.63975039962E+01 0.90001085297E+01 0.17633873497E+02
 0.32169025288E+02 0.49553792423E+02 0.88141837154E+02 0.16215793912E+03 0.24586193373E+03
 0.28413137861E+03 0.24586193373E+03 0.16215793912E+03 0.88141837154E+02 0.49553792423E+02
 0.32169025288E+02 0.17633873497E+02 0.90001085297E+01 0.63975039962E+01 0.67611259177E+01
 0.11402012110E+02 0.94821915055E+01 0.67611259177E+01 0.94917113983E+01 0.21010588563E+02
 0.37678095315E+02 0.60493667899E+02 0.12591362102E+03 0.24586193373E+03 0.37473213232E+03
 0.43206890132E+03 0.37473213232E+03 0.24586193373E+03 0.12591362102E+03 0.60493667899E+02
 0.37678095315E+02 0.21010588563E+02 0.94917113983E+01 0.67611259177E+01 0.94821915055E+01
 0.14155153403E+02 0.11402012110E+02 0.72271914721E+01 0.96567802449E+01 0.22210316137E+02
 0.39567224565E+02 0.65756567228E+02 0.14392196280E+03 0.28413137861E+03 0.43206890132E+03
 0.49726558125E+03 0.43206890132E+03 0.28413137861E+03 0.14392196280E+03 0.65756567228E+02
 0.39567224565E+02 0.22210316137E+02 0.96567802449E+01 0.72271914721E+01 0.11402012110E+02
 0.11402012110E+02 0.94821915055E+01 0.67611259177E+01 0.94917113983E+01 0.21010588563E+02
 0.37678095315E+02 0.60493667899E+02 0.12591362102E+03 0.24586193373E+03 0.37473213232E+03
 0.43206890132E+03 0.37473213232E+03 0.24586193373E+03 0.12591362102E+03 0.60493667899E+02
 0.37678095315E+02 0.21010588563E+02 0.94917113983E+01 0.67611259177E+01 0.94821915055E+01
 0.72271914721E+01 0.67611259177E+01 0.63975039962E+01 0.90001085297E+01 0.17633873497E+02
 0.32169025288E+02 0.49553792423E+02 0.88141837154E+02 0.16215793912E+03 0.24586193373E+03
 0.28413137861E+03 0.24586193373E+03 0.16215793912E+03 0.88141837154E+02 0.49553792423E+02
 0.32169025288E+02 0.17633873497E+02 0.90001085297E+01 0.63975039962E+01 0.67611259177E+01
 0.96567802449E+01 0.94917113983E+01 0.90001085297E+01 0.93152868290E+01 0.13565429187E+02
 0.24191719388E+02 0.38860152302E+02 0.56816908272E+02 0.88141837154E+02 0.12591362102E+03
 0.14392196280E+03 0.12591362102E+03 0.88141837154E+02 0.56816908272E+02 0.38860152302E+02
 0.24191719388E+02 0.13565429187E+02 0.93152868290E+01 0.90001085297E+01 0.94917113983E+01
 0.22210316137E+02 0.21010588563E+02 0.17633873497E+02 0.13565429187E+02 0.12194524598E+02
 0.16793237336E+02 0.27126923179E+02 0.38860152302E+02 0.49553792423E+02 0.60493667899E+02
 0.65756567228E+02 0.60493667899E+02 0.49553792423E+02 0.38860152302E+02 0.27126923179E+02
 0.16793237336E+02 0.12194524598E+02 0.13565429187E+02 0.17633873497E+02 0.21010588563E+02
 0.39567224565E+02 0.37678095315E+02 0.32169025288E+02 0.24191719388E+02 0.16793237336E+02
 0.13744253844E+02 0.16793237336E+02 0.24191719388E+02 0.32169025288E+02 0.37678095315E+02
 0.39567224565E+02 0.37678095315E+02 0.32169025288E+02 0.24191719388E+02 0.16793237336E+02
 0.13744253844E+02 0.16793237336E+02 0.24191719388E+02 0.32169025288E+02 0.37678095315E+02
 0.65756567228E+02 0.60493667899E+02 0.49553792423E+02 0.38860152302E+02 0.27126923179E+02
 0.16793237336E+02 0.12194524598E+02 0.13565429187E+02 0.17633873497E+02 0.21010588563E+02
 0.22210316137E+02 0.21010588563E+02 0.17633873497E+02 0.13565429187E+02 0.12194524598E+02
 0.16793237336E+02 0.27126923179E+02 0.38860152302E+02 0.49553792423E+02 0.60493667899E+02
 0.14392196280E+03 0.12591362102E+03 0.88141837154E+02 0.56816908272E+02 0.38860152302E+02
 0.24191719388E+02 0.13565429187E+02 0.93152868290E+01 0.90001085297E+01 0.94917113983E+01
 0.96567802449E+01 0.94917113983E+01 0.90001085297E+01 0.93152868290E+01 0.13565429187E+02
 0.24191719388E+02 0.38860152302E+02 0.56816908272E+02 0.88141837154E+02 0.12591362102E+03
 0.28413137861E+03 0.24586193373E+03 0.16215793912E+03 0.88141837154E+02 0.49553792423E+02
 0.32169025288E+02 0.17633873497E+02 0.90001085297E+01 0.63975039962E+01 0.67611259177E+01
 0.72271914721E+01 0.67611259177E+01 0.63975039962E+01 0.90001085297E+01 0.17633873497E+02
 0.32169025288E+02 0.49553792423E+02 0.88141837154E+02 0.16215793912E+03 0.24586193373E+03
 0.43206890132E+03 0.37473213232E+03 0.24586193373E+03 0.12591362102E+03 0.60493667899E+02
 0.37678095315E+02 0.21010588563E+02 0.94917113983E+01 0.67611259177E+01 0.94821915055E+01
 0.11402012110E+02 0.94821915055E+01 0.67611259177E+01 0.94917113983E+01 0.21010588563E+02
 0.37678095315E+02 0.60493667899E+02 0.12591362102E+03 0.24586193373E+03 0.37473213232E+03
 0.32829063505E+03 0.28413137861E+03 0.18682610454E+03 0.99539129805E+02 0.53469313524E+02
 0.34357234166E+02 0.18488167326E+02 0.86468168780E+01 0.60173406264E+01 0.72271914721E+01
 0.81981867445E+01 0.72271914721E+01 0.60173406264E+01 0.86468168780E+01 0.18488167326E+02
 0.34357234166E+02 0.53469313524E+02 0.99539129805E+02 0.18682610454E+03 0.28413137861E+03
 0.28413137861E+03 0.24586193373E+03 0.16215793912E+03 0.88141837154E+02 0.49553792423E+02
 0.32169025288E+02 0.17633873497E+02 0.90001085297E+01 0.63975039962E+01 0.67611259177E+01
 0.72271914721E+01 0.67611259177E+01 0.63975039962E+01 0.90001085297E+01 0.17633873497E+02
 0.32169025288E+02 0.49553792423E+02 0.88141837154E+02 0.16215793912E+03 0.24586193373E+03
 0.18682610454E+03 0.16215793912E+03 0.10934179057E+03 0.64410302920E+02 0.40926967062E+02
 0.26485311303E+02 0.15289752143E+02 0.95301984706E+01 0.73643493511E+01 0.63975039962E+01
 0.60173406264E+01 0.63975039962E+01 0.73643493511E+01 0.95301984706E+01 0.15289752143E+02
 0.26485311303E+02 0.40926967062E+02 0.64410302920E+02 0.10934179057E+03 0.16215793912E+03
 0.99539129805E+02 0.88141837154E+02 0.64410302920E+02 0.44602077122E+02 0.31187259333E+02
 0.19550036925E+02 0.12474570229E+02 0.10042363778E+02 0.95301984706E+01 0.90001085297E+01
 0.86468168780E+01 0.90001085297E+01 0.95301984706E+01 0.10042363778E+02 0.12474570229E+02
 0.19550036925E+02 0.31187259333E+02 0.44602077122E+02 0.64410302920E+02 0.88141837154E+02
 0.53469313524E+02 0.49553792423E+02 0.40926967062E+02 0.31187259333E+02 0.21247231234E+02
 0.14012241278E+02 0.11297154381E+02 0.12474570229E+02 0.15289752143E+02 0.17633873497E+02
 0.18488167326E+02 0.17633873497E+02 0.15289752143E+02 0.12474570229E+02 0.11297154381E+02
 0.14012241278E+02 0.21247231234E+02 0.31187259333E+02 0.40926967062E+02 0.49553792423E+02
 0.34357234166E+02 0.32169025288E+02 0.26485311303E+02 0.19550036925E+02 0.14012241278E+02
 0.11914214901E+02 0.14012241278E+02 0.19550036925E+02 0.26485311303E+02 0.32169025288E+02
 0.34357234166E+02 0.32169025288E+02 0.26485311303E+02 0.19550036925E+02 0.14012241278E+02
 0.11914214901E+02 0.14012241278E+02 0.19550036925E+02 0.26485311303E+02 0.32169025288E+02
 0.18488167326E+02 0.17633873497E+02 0.15289752143E+02 0.12474570229E+02 0.11297154381E+02
 0.14012241278E+02 0.21247231234E+02 0.31187259333E+02 0.40926967062E+02 0.49553792423E+02
 0.53469313524E+02 0.49553792423E+02 0.40926967062E+02 0.31187259333E+02 0.21247231234E+02
 0.14012241278E+02 0.11297154381E+02 0.12474570229E+02 0.15289752143E+02 0.17633873497E+02
 0.86468168780E+01 0.90001085297E+01 0.95301984706E+01 0.10042363778E+02 0.12474570229E+02
 0.19550036925E+02 0.31187259333E+02 0.44602077122E+02 0.64410302920E+02 0.88141837154E+02
 0.99539129805E+02 0.88141837154E+02 0.64410302920E+02 0.44602077122E+02 0.31187259333E+02
 0.19550036925E+02 0.12474570229E+02 0.10042363778E+02 0.95301984706E+01 0.90001085297E+01
 0.60173406264E+01 0.63975039962E+01 0.73643493511E+01 0.95301984706E+01 0.15289752143E+02
 0.26485311303E+02 0.40926967062E+02 0.64410302920E+02 0.10934179057E+03 0.16215793912E+03
 0.18682610454E+03 0.16215793912E+03 0.10934179057E+03 0.64410302920E+02 0.40926967062E+02
 0.26485311303E+02 0.15289752143E+02 0.95301984706E+01 0.73643493511E+01 0.63975039962E+01
 0.72271914721E+01 0.67611259177E+01 0.63975039962E+01 0.90001085297E+01 0.17633873497E+02
 0.32169025288E+02 0.49553792423E+02 0.88141837154E+02 0.16215793912E+03 0.24586193373E+03
 0.28413137861E+03 0.24586193373E+03 0.16215793912E+03 0.88141837154E+02 0.49553792423E+02
 0.32169025288E+02 0.17633873497E+02 0.90001085297E+01 0.63975039962E+01 0.67611259177E+01
 0.81981867445E+01 0.72271914721E+01 0.60173406264E+01 0.86468168780E+01 0.18488167326E+02
 0.34357234166E+02 0.53469313524E+02 0.99539129805E+02 0.18682610454E+03 0.28413137861E+03
 0.32829063505E+03 0.28413137861E+03 0.18682610454E+03 0.99539129805E+02 0.53469313524E+02
 0.34357234166E+02 0.18488167326E+02 0.86468168780E+01 0.60173406264E+01 0.72271914721E+01
 0.72271914721E+01 0.67611259177E+01 0.63975039962E+01 0.90001085297E+01 0.17633873497E+02
 0.32169025288E+02 0.49553792423E+02 0.88141837154E+02 0.16215793912E+03 0.24586193373E+03
 0.28413137861E+03 0.24586193373E+03 0.16215793912E+03 0.88141837154E+02 0.49553792423E+02
 0.32169025288E+02 0.17633873497E+02 0.90001085297E+01 0.63975039962E+01 0.67611259177E+01
 0.60173406264E+01 0.63975039962E+01 0.73643493511E+01 0.95301984706E+01 0.15289752143E+02
 0.26485311303E+02 0.40926967062E+02 0.64410302920E+02 0.10934179057E+03 0.16215793912E+03
 0.18682610454E+03 0.16215793912E+03 0.10934179057E+03 0.64410302920E+02 0.40926967062E+02
 0.26485311303E+02 0.15289752143E+02 0.95301984706E+01 0.73643493511E+01 0.63975039962E+01
 0.86468168780E+01 0.90001085297E+01 0.95301984706E+01 0.10042363778E+02 0.12474570229E+02
 0.19550036925E+02 0.31187259333E+02 0.44602077122E+02 0.64410302920E+02 0.88141837154E+02
 0.99539129805E+02 0.88141837154E+02 0.64410302920E+02 0.44602077122E+02 0.31187259333E+02
 0.19550036925E+02 0.12474570229E+02 0.10042363778E+02 0.95301984706E+01 0.90001085297E+01
 0.18488167326E+02 0.17633873497E+02 0.15289752143E+02 0.12474570229E+02 0.11297154381E+02
 0.14012241278E+02 0.21247231234E+02 0.31187259333E+02 0.40926967062E+02 0.49553792423E+02
 0.53469313524E+02 0.49553792423E+02 0.40926967062E+02 0.31187259333E+02 0.21247231234E+02
 0.14012241278E+02 0.11297154381E+02 0.12474570229E+02 0.15289752143E+02 0.17633873497E+02
 0.34357234166E+02 0.32169025288E+02 0.26485311303E+02 0.19550036925E+02 0.14012241278E+02
 0.11914214901E+02 0.14012241278E+02 0.19550036925E+02 0.26485311303E+02 0.32169025288E+02
 0.34357234166E+02 0.32169025288E+02 0.26485311303E+02 0.19550036925E+02 0.14012241278E+02
 0.11914214901E+02 0.14012241278E+02 0.19550036925E+02 0.26485311303E+02 0.32169025288E+02
 0.53469313524E+02 0.49553792423E+02 0.40926967062E+02 0.31187259333E+02 0.21247231234E+02
 0.14012241278E+02 0.11297154381E+02 0.12474570229E+02 0.15289752143E+02 0.17633873497E+02
 0.18488167326E+02 0.17633873497E+02 0.15289752143E+02 0.12474570229E+02 0.11297154381E+02
 0.14012241278E+02 0.21247231234E+02 0.31187259333E+02 0.40926967062E+02 0.49553792423E+02
 0.99539129805E+02 0.88141837154E+02 0.64410302920E+02 0.44602077122E+02 0.31187259333E+02
 0.19550036925E+02 0.12474570229E+02 0.10042363778E+02 0.95301984706E+01 0.90001085297E+01
 0.86468168780E+01 0.90001085297E+01 0.95301984706E+01 0.10042363778E+02 0.12474570229E+02
 0.19550036925E+02 0.31187259333E+02 0.44602077122E+02 0.64410302920E+02 0.88141837154E+02
 0.18682610454E+03 0.16215793912E+03 0.10934179057E+03 0.64410302920E+02 0.40926967062E+02
 0.26485311303E+02 0.15289752143E+02 0.95301984706E+01 0.73643493511E+01 0.63975039962E+01
 0.60173406264E+01 0.63975039962E+01 0.73643493511E+01 0.95301984706E+01 0.15289752143E+02
 0.26485311303E+02 0.40926967062E+02 0.64410302920E+02 0.10934179057E+03 0.16215793912E+03
 0.28413137861E+03 0.24586193373E+03 0.16215793912E+03 0.88141837154E+02 0.49553792423E+02
 0.32169025288E+02 0.17633873497E+02 0.90001085297E+01 0.63975039962E+01 0.67611259177E+01
 0.72271914721E+01 0.67611259177E+01 0.63975039962E+01 0.90001085297E+01 0.17633873497E+02
 0.32169025288E+02 0.49553792423E+02 0.88141837154E+02 0.16215793912E+03 0.24586193373E+03
 0.16499604781E+03 0.14392196280E+03 0.99539129805E+02 0.62556369373E+02 0.42003039848E+02
 0.26181624532E+02 0.14025548972E+02 0.88972593606E+01 0.86468168780E+01 0.96567802449E+01
 0.10098013278E+02 0.96567802449E+01 0.86468168780E+01 0.88972593606E+01 0.14025548972E+02
 0.26181624532E+02 0.42003039848E+02 0.62556369373E+02 0.99539129805E+02 0.14392196280E+03
 0.14392196280E+03 0.12591362102E+03 0.88141837154E+02 0.56816908272E+02 0.38860152302E+02
 0.24191719388E+02 0.13565429187E+02 0.93152868290E+01 0.90001085297E+01 0.94917113983E+01
 0.96567802449E+01 0.94917113983E+01 0.90001085297E+01 0.93152868290E+01 0.13565429187E+02
 0.24191719388E+02 0.38860152302E+02 0.56816908272E+02 0.88141837154E+02 0.12591362102E+03
 0.99539129805E+02 0.88141837154E+02 0.64410302920E+02 0.44602077122E+02 0.31187259333E+02
 0.19550036925E+02 0.12474570229E+02 0.10042363778E+02 0.95301984706E+01 0.90001085297E+01
 0.86468168780E+01 0.90001085297E+01 0.95301984706E+01 0.10042363778E+02 0.12474570229E+02
 0.19550036925E+02 0.31187259333E+02 0.44602077122E+02 0.64410302920E+02 0.88141837154E+02
 0.62556369373E+02 0.56816908272E+02 0.44602077122E+02 0.32941802726E+02 0.22478596357E+02
 0.14948515579E+02 0.11396099088E+02 0.10461099033E+02 0.10042363778E+02 0.93152868290E+01
 0.88972593606E+01 0.93152868290E+01 0.10042363778E+02 0.10461099033E+02 0.11396099088E+02
 0.14948515579E+02 0.22478596357E+02 0.32941802726E+02 0.44602077122E+02 0.56816908272E+02
 0.42003039848E+02 0.38860152302E+02 0.31187259333E+02 0.22478596357E+02 0.15776541947E+02
 0.12144780108E+02 0.11018999651E+02 0.11396099088E+02 0.12474570229E+02 0.13565429187E+02
 0.14025548972E+02 0.13565429187E+02 0.12474570229E+02 0.11396099088E+02 0.11018999651E+02
 0.12144780108E+02 0.15776541947E+02 0.22478596357E+02 0.31187259333E+02 0.38860152302E+02
 0.26181624532E+02 0.24191719388E+02 0.19550036925E+02 0.14948515579E+02 0.12144780108E+02
 0.11290788664E+02 0.12144780108E+02 0.14948515579E+02 0.19550036925E+02 0.24191719388E+02
 0.26181624532E+02 0.24191719388E+02 0.19550036925E+02 0.14948515579E+02 0.12144780108E+02
 0.11290788664E+02 0.12144780108E+02 0.14948515579E+02 0.19550036925E+02 0.24191719388E+02
 0.14025548972E+02 0.13565429187E+02 0.12474570229E+02 0.11396099088E+02 0.11018999651E+02
 0.12144780108E+02 0.15776541947E+02 0.22478596357E+02 0.31187259333E+02 0.38860152302E+02
 0.42003039848E+02 0.38860152302E+02 0.31187259333E+02 0.22478596357E+02 0.15776541947E+02
 0.12144780108E+02 0.11018999651E+02 0.11396099088E+02 0.12474570229E+02 0.13565429187E+02
 0.88972593606E+01 0.93152868290E+01 0.10042363778E+02 0.10461099033E+02 0.11396099088E+02
 0.14948515579E+02 0.22478596357E+02 0.32941802726E+02 0.44602077122E+02 0.56816908272E+02
 0.62556369373E+02 0.56816908272E+02 0.44602077122E+02 0.32941802726E+02 0.22478596357E+02
 0.14948515579E+02 0.11396099088E+02 0.10461099033E+02 0.10042363778E+02 0.93152868290E+01
 0.86468168780E+01 0.90001085297E+01 0.95301984706E+01 0.10042363778E+02 0.12474570229E+02
 0.19550036925E+02 0.31187259333E+02 0.44602077122E+02 0.64410302920E+02 0.88141837154E+02
 0.99539129805E+02 0.88141837154E+02 0.64410302920E+02 0.44602077122E+02 0.31187259333E+02
 0.19550036925E+02 0.12474570229E+02 0.10042363778E+02 0.95301984706E+01 0.90001085297E+01
 0.96567802449E+01 0.94917113983E+01 0.90001085297E+01 0.93152868290E+01 0.13565429187E+02
 0.24191719388E+02 0.38860152302E+02 0.56816908272E+02 0.88141837154E+02 0.12591362102E+03
 0.14392196280E+03 0.12591362102E+03 0.88141837154E+02 0.56816908272E+02 0.38860152302E+02
 0.24191719388E+02 0.13565429187E+02 0.93152868290E+01 0.90001085297E+01 0.94917113983E+01
 0.10098013278E+02 0.96567802449E+01 0.86468168780E+01 0.88972593606E+01 0.14025548972E+02
 0.26181624532E+02 0.42003039848E+02 0.62556369373E+02 0.99539129805E+02 0.14392196280E+03
 0.16499604781E+03 0.14392196280E+03 0.99539129805E+02 0.62556369373E+02 0.42003039848E+02
 0.26181624532E+02 0.14025548972E+02 0.88972593606E+01 0.86468168780E+01 0.96567802449E+01
 0.96567802449E+01 0.94917113983E+01 0.90001085297E+01 0.93152868290E+01 0.13565429187E+02
 0.24191719388E+02 0.38860152302E+02 0.56816908272E+02 0.88141837154E+02 0.12591362102E+03
 0.14392196280E+03 0.12591362102E+03 0.88141837154E+02 0.56816908272E+02 0.38860152302E+02
 0.24191719388E+02 0.13565429187E+02 0.93152868290E+01 0.90001085297E+01 0.94917113983E+01
 0.86468168780E+01 0.90001085297E+01 0.95301984706E+01 0.10042363778E+02 0.12474570229E+02
 0.19550036925E+02 0.31187259333E+02 0.44602077122E+02 0.64410302920E+02 0.88141837154E+02
 0.99539129805E+02 0.88141837154E+02 0.64410302920E+02 0.44602077122E+02 0.31187259333E+02
 0.19550036925E+02 0.12474570229E+02 0.10042363778E+02 0.95301984706E+01 0.90001085297E+01
 0.88972593606E+01 0.93152868290E+01 0.10042363778E+02 0.10461099033E+02 0.11396099088E+02
 0.14948515579E+02 0.22478596357E+02 0.32941802726E+02 0.44602077122E+02 0.56816908272E+02
 0.62556369373E+02 0.56816908272E+02 0.44602077122E+02 0.32941802726E+02 0.22478596357E+02
 0.14948515579E+02 0.11396099088E+02 0.10461099033E+02 0.10042363778E+02 0.93152868290E+01
 0.14025548972E+02 0.13565429187E+02 0.12474570229E+02 0.11396099088E+02 0.11018999651E+02
 0.12144780108E+02 0.15776541947E+02 0.22478596357E+02 0.31187259333E+02 0.38860152302E+02
 0.42003039848E+02 0.38860152302E+02 0.31187259333E+02 0.22478596357E+02 0.15776541947E+02
 0.12144780108E+02 0.11018999651E+02 0.11396099088E+02 0.12474570229E+02 0.13565429187E+02
 0.26181624532E+02 0.24191719388E+02 0.19550036925E+02 0.14948515579E+02 0.12144780108E+02
 0.11290788664E+02 0.12144780108E+02 0.14948515579E+02 0.19550036925E+02 0.24191719388E+02
 0.26181624532E+02 0.24191719388E+02 0.19550036925E+02 0.14948515579E+02 0.12144780108E+02
 0.11290788664E+02 0.12144780108E+02 0.14948515579E+02 0.19550036925E+02 0.24191719388E+02
 0.42003039848E+02 0.38860152302E+02 0.31187259333E+02 0.22478596357E+02 0.15776541947E+02
 0.12144780108E+02 0.11018999651E+02 0.11396099088E+02 0.12474570229E+02 0.13565429187E+02
 0.14025548972E+02 0.13565429187E+02 0.12474570229E+02 0.11396099088E+02 0.11018999651E+02
 0.12144780108E+02 0.15776541947E+02 0.22478596357E+02 0.31187259333E+02 0.38860152302E+02
 0.62556369373E+02 0.56816908272E+02 0.44602077122E+02 0.32941802726E+02 0.22478596357E+02
 0.14948515579E+02 0.11396099088E+02 0.10461099033E+02 0.10042363778E+02 0.93152868290E+01
 0.88972593606E+01 0.93152868290E+01 0.10042363778E+02 0.10461099033E+02 0.11396099088E+02
 0.14948515579E+02 0.22478596357E+02 0.32941802726E+02 0.44602077122E+02 0.56816908272E+02
 0.99539129805E+02 0.88141837154E+02 0.64410302920E+02 0.44602077122E+02 0.31187259333E+02
 0.19550036925E+02 0.12474570229E+02 0.10042363778E+02 0.95301984706E+01 0.90001085297E+01
 0.86468168780E+01 0.90001085297E+01 0.95301984706E+01 0.10042363778E+02 0.12474570229E+02
 0.19550036925E+02 0.31187259333E+02 0.44602077122E+02 0.64410302920E+02 0.88141837154E+02
 0.14392196280E+03 0.12591362102E+03 0.88141837154E+02 0.56816908272E+02 0.38860152302E+02
 0.24191719388E+02 0.13565429187E+02 0.93152868290E+01 0.90001085297E+01 0.94917113983E+01
 0.96567802449E+01 0.94917113983E+01 0.90001085297E+01 0.93152868290E+01 0.13565429187E+02
 0.24191719388E+02 0.38860152302E+02 0.56816908272E+02 0.88141837154E+02 0.12591362102E+03
 0.71749886353E+02 0.65756567228E+02 0.53469313524E+02 0.42003039848E+02 0.29706113604E+02
 0.18155334078E+02 0.12705857415E+02 0.14025548972E+02 0.18488167326E+02 0.22210316137E+02
 0.23525143750E+02 0.22210316137E+02 0.18488167326E+02 0.14025548972E+02 0.12705857415E+02
 0.18155334078E+02 0.29706113604E+02 0.42003039848E+02 0.53469313524E+02 0.65756567228E+02
 0.65756567228E+02 0.60493667899E+02 0.49553792423E+02 0.38860152302E+02 0.27126923179E+02