   4   4   0   0
  0.1200752E+02  0.3635000E-09  0.3635000E-09  0.3635000E-09  0.5000000E-15
  1.000000000000000E-004
  CAR 
 unknown system                          
     24.95279947    -16.76388113  301      9.72747218      1.00000000
    -16.764  0.0000E+00  0.0000E+00
    -16.625  0.0000E+00  0.0000E+00
    -16.486 -0.5400E-32 -0.7509E-33
    -16.347 -0.4855E-27 -0.6751E-28
    -16.208 -0.1646E-22 -0.2289E-23
    -16.069 -0.2106E-18 -0.2929E-19
    -15.930 -0.9774E-15 -0.1359E-15
    -15.790 -0.1776E-11 -0.2471E-12
    -15.651 -0.1198E-08 -0.1668E-09
    -15.512 -0.3016E-06 -0.4210E-07
    -15.373 -0.2807E-04 -0.3946E-05
    -15.234 -0.9418E-03 -0.1349E-03
    -15.095 -0.1034E-01 -0.1573E-02
    -14.956 -0.1855E-01 -0.4153E-02
    -14.817  0.1517E+00  0.1694E-01
    -14.678  0.4890E+00  0.8494E-01
    -14.539  0.4780E+00  0.1514E+00
    -14.400  0.3980E+00  0.2068E+00
    -14.261  0.2420E+00  0.2404E+00
    -14.122  0.1544E-01  0.2426E+00
    -13.983 -0.1591E-01  0.2404E+00
    -13.844 -0.2424E-02  0.2400E+00
    -13.705 -0.5408E-03  0.2399E+00
    -13.566 -0.1016E-01  0.2385E+00
    -13.427 -0.6958E-01  0.2288E+00
    -13.287  0.3465E-01  0.2337E+00
    -13.148  0.1170E+01  0.3964E+00
    -13.009  0.2148E+01  0.6951E+00
    -12.870  0.9684E+00  0.8297E+00
    -12.731 -0.3230E-01  0.8253E+00
    -12.592 -0.5982E-01  0.8169E+00
    -12.453 -0.6518E-02  0.8160E+00
    -12.314 -0.2637E-03  0.8160E+00
    -12.175 -0.1797E-02  0.8157E+00
    -12.036 -0.1968E-01  0.8130E+00
    -11.897 -0.2472E-01  0.8096E+00
    -11.758  0.3022E+00  0.8516E+00
    -11.619  0.7730E+00  0.9591E+00
    -11.480  0.6987E+00  0.1056E+01
    -11.341  0.5207E+00  0.1129E+01
    -11.202  0.1928E+00  0.1155E+01
    -11.063 -0.4535E-01  0.1149E+01
    -10.924 -0.1490E+00  0.1128E+01
    -10.784  0.3787E+00  0.1181E+01
    -10.645  0.2539E+01  0.1534E+01
    -10.506  0.3198E+01  0.1979E+01
    -10.367  0.9442E+00  0.2110E+01
    -10.228  0.1115E+01  0.2265E+01
    -10.089  0.3447E+01  0.2744E+01
     -9.950  0.2939E+01  0.3153E+01
     -9.811  0.1175E+01  0.3317E+01
     -9.672  0.2124E+01  0.3612E+01
     -9.533  0.4075E+01  0.4179E+01
     -9.394  0.2873E+01  0.4578E+01
     -9.255  0.1364E+01  0.4768E+01
     -9.116  0.1572E+01  0.4986E+01
     -8.977  0.2336E+01  0.5311E+01
     -8.838  0.2830E+01  0.5705E+01
     -8.699  0.1592E+01  0.5926E+01
     -8.560  0.1261E+01  0.6101E+01
     -8.421  0.2699E+01  0.6477E+01
     -8.281  0.2947E+01  0.6887E+01
     -8.142  0.2971E+01  0.7300E+01
     -8.003  0.2768E+01  0.7685E+01
     -7.864  0.1915E+01  0.7951E+01
     -7.725  0.2147E+01  0.8249E+01
     -7.586  0.1409E+01  0.8445E+01
     -7.447  0.1514E+01  0.8656E+01
     -7.308  0.3745E+01  0.9177E+01
     -7.169  0.3577E+01  0.9674E+01
     -7.030  0.2532E+01  0.1003E+02
     -6.891  0.1904E+01  0.1029E+02
     -6.752  0.6783E+00  0.1039E+02
     -6.613  0.7640E+00  0.1049E+02
     -6.474  0.2158E+01  0.1079E+02
     -6.335  0.2577E+01  0.1115E+02
     -6.196  0.1208E+01  0.1132E+02
     -6.057  0.1197E-01  0.1132E+02
     -5.918 -0.1375E+00  0.1130E+02
     -5.778  0.5142E+00  0.1137E+02
     -5.639  0.1438E+01  0.1157E+02
     -5.500  0.9272E+00  0.1170E+02
     -5.361  0.1009E+01  0.1184E+02
     -5.222  0.1389E+01  0.1203E+02
     -5.083  0.3378E+00  0.1208E+02
     -4.944 -0.9660E-01  0.1207E+02
     -4.805  0.1175E+01  0.1223E+02
     -4.666  0.3298E+01  0.1269E+02
     -4.527  0.2697E+01  0.1306E+02
     -4.388  0.3611E+00  0.1312E+02
     -4.249 -0.2862E-01  0.1311E+02
     -4.110  0.1528E+01  0.1332E+02
     -3.971  0.2126E+01  0.1362E+02
     -3.832  0.5810E+00  0.1370E+02
     -3.693 -0.1042E+00  0.1369E+02
     -3.554 -0.6256E-01  0.1368E+02
     -3.415 -0.1330E+00  0.1366E+02
     -3.275  0.2012E+00  0.1369E+02
     -3.136  0.2333E+01  0.1401E+02
     -2.997  0.3506E+01  0.1450E+02
     -2.858  0.1183E+01  0.1466E+02
     -2.719 -0.1025E+00  0.1465E+02
     -2.580  0.1295E+01  0.1483E+02
     -2.441  0.3067E+01  0.1525E+02
     -2.302  0.1804E+01  0.1551E+02
     -2.163  0.7140E-02  0.1551E+02
     -2.024  0.7395E+00  0.1561E+02
     -1.885  0.3907E+01  0.1615E+02
     -1.746  0.5779E+01  0.1696E+02
     -1.607  0.3544E+01  0.1745E+02
     -1.468  0.1450E+01  0.1765E+02
     -1.329  0.7063E+00  0.1775E+02
     -1.190  0.5648E-01  0.1776E+02
     -1.051  0.7642E+00  0.1786E+02
     -0.912  0.1649E+01  0.1809E+02
     -0.772  0.8483E+00  0.1821E+02
     -0.633  0.1793E+01  0.1846E+02
     -0.494  0.3674E+01  0.1897E+02
     -0.355  0.1908E+01  0.1924E+02
     -0.216  0.2085E+00  0.1926E+02
     -0.077  0.1075E+01  0.1941E+02
      0.062  0.1462E+01  0.1962E+02
      0.201  0.1451E+01  0.1982E+02
      0.340  0.1120E+01  0.1998E+02
      0.479  0.1906E+00  0.2000E+02
      0.618  0.8733E+00  0.2012E+02
      0.757  0.2163E+01  0.2042E+02
      0.896  0.1947E+01  0.2069E+02
      1.035  0.9718E+00  0.2083E+02
      1.174  0.9209E+00  0.2096E+02
      1.313  0.2464E+01  0.2130E+02
      1.452  0.2871E+01  0.2170E+02
      1.591  0.8981E+00  0.2182E+02
      1.731  0.2282E+01  0.2214E+02
      1.870  0.4865E+01  0.2282E+02
      2.009  0.2940E+01  0.2323E+02
      2.148  0.2045E+01  0.2351E+02
      2.287  0.2868E+01  0.2391E+02
      2.426  0.2322E+01  0.2423E+02
      2.565  0.1095E+01  0.2439E+02
      2.704  0.6859E+00  0.2448E+02
      2.843  0.6726E+00  0.2457E+02
      2.982  0.6400E+00  0.2466E+02
      3.121  0.2289E+01  0.2498E+02
      3.260  0.2608E+01  0.2534E+02
      3.399  0.3801E+00  0.2540E+02
      3.538  0.5333E+00  0.2547E+02
      3.677  0.3711E+01  0.2599E+02
      3.816  0.3884E+01  0.2653E+02
      3.955  0.1092E+01  0.2668E+02
      4.094  0.5053E-01  0.2669E+02
      4.234  0.6636E+00  0.2678E+02
      4.373  0.1643E+01  0.2701E+02
      4.512  0.1945E+01  0.2728E+02
      4.651  0.2299E+01  0.2760E+02
      4.790  0.3465E+01  0.2808E+02
      4.929  0.4523E+01  0.2871E+02
      5.068  0.3619E+01  0.2921E+02
      5.207  0.1953E+01  0.2948E+02
      5.346  0.1875E+01  0.2974E+02
      5.485  0.1652E+01  0.2997E+02
      5.624  0.3012E+00  0.3002E+02
      5.763  0.5808E+00  0.3010E+02
      5.902  0.4638E+01  0.3074E+02
      6.041  0.5704E+01  0.3153E+02
      6.180  0.3625E+01  0.3204E+02
      6.319  0.2934E+01  0.3245E+02
      6.458  0.2704E+01  0.3282E+02
      6.597  0.3020E+01  0.3324E+02
      6.737  0.2952E+01  0.3365E+02
      6.876  0.5394E+01  0.3440E+02
      7.015  0.7513E+01  0.3545E+02
      7.154  0.4869E+01  0.3612E+02
      7.293  0.1513E+01  0.3634E+02
      7.432  0.3165E+01  0.3678E+02
      7.571  0.4680E+01  0.3743E+02
      7.710  0.2933E+01  0.3783E+02
      7.849  0.2940E+01  0.3824E+02
      7.988  0.2276E+01  0.3856E+02
      8.127  0.9452E+00  0.3869E+02
      8.266  0.2086E+01  0.3898E+02
      8.405  0.3961E+01  0.3953E+02
      8.544  0.4872E+01  0.4021E+02
      8.683  0.4129E+01  0.4078E+02
      8.822  0.4241E+01  0.4137E+02
      8.961  0.3332E+01  0.4184E+02
      9.100  0.2407E+01  0.4217E+02
      9.240  0.3511E+01  0.4266E+02
      9.379  0.4444E+01  0.4328E+02
      9.518  0.2365E+01  0.4361E+02
      9.657  0.1736E+01  0.4385E+02
      9.796  0.2005E+01  0.4413E+02
      9.935  0.8033E+00  0.4424E+02
     10.074  0.5096E+00  0.4431E+02
     10.213  0.2401E+01  0.4464E+02
     10.352  0.3262E+01  0.4510E+02
     10.491  0.2635E+01  0.4546E+02
     10.630  0.3330E+01  0.4593E+02
     10.769  0.1892E+01  0.4619E+02
     10.908  0.2171E-01  0.4619E+02
     11.047 -0.1392E+00  0.4617E+02
     11.186  0.3198E+00  0.4622E+02
     11.325  0.7339E+00  0.4632E+02
     11.464  0.2227E+00  0.4635E+02
     11.603  0.2375E+00  0.4638E+02
     11.743  0.2257E+01  0.4670E+02
     11.882  0.3135E+01  0.4713E+02
     12.021  0.2327E+01  0.4746E+02
     12.160  0.2990E+01  0.4787E+02
     12.299  0.3891E+01  0.4841E+02
     12.438  0.2326E+01  0.4874E+02
     12.577  0.5111E-01  0.4874E+02
     12.716  0.8583E+00  0.4886E+02
     12.855  0.5006E+01  0.4956E+02
     12.994  0.5731E+01  0.5036E+02
     13.133  0.3765E+01  0.5088E+02
     13.272  0.3219E+01  0.5133E+02
     13.411  0.1056E+01  0.5147E+02
     13.550 -0.2841E+00  0.5143E+02
     13.689  0.9313E+00  0.5156E+02
     13.828  0.3623E+01  0.5207E+02
     13.967  0.2973E+01  0.5248E+02
     14.106  0.2080E+01  0.5277E+02
     14.246  0.5156E+01  0.5349E+02
     14.385  0.4964E+01  0.5418E+02
     14.524  0.1115E+01  0.5433E+02
     14.663 -0.2901E+00  0.5429E+02
     14.802 -0.1057E+00  0.5428E+02
     14.941  0.7082E+00  0.5438E+02
     15.080  0.1611E+01  0.5460E+02
     15.219  0.2101E+01  0.5489E+02
     15.358  0.2128E+01  0.5519E+02
     15.497  0.1531E+01  0.5540E+02
     15.636  0.1856E+01  0.5566E+02
     15.775  0.9763E+00  0.5580E+02
     15.914  0.1013E+01  0.5594E+02
     16.053  0.3722E+01  0.5645E+02
     16.192  0.5617E+01  0.5723E+02
     16.331  0.4524E+01  0.5786E+02
     16.470  0.2679E+01  0.5824E+02
     16.609  0.1659E+01  0.5847E+02
     16.749  0.4293E+00  0.5853E+02
     16.888 -0.6802E-01  0.5852E+02
     17.027 -0.4152E-01  0.5851E+02
     17.166 -0.5454E-01  0.5850E+02
     17.305 -0.1481E-01  0.5850E+02
     17.444  0.7678E+00  0.5861E+02
     17.583  0.1671E+01  0.5884E+02
     17.722  0.1778E+01  0.5909E+02
     17.861  0.1258E+01  0.5926E+02
     18.000  0.1975E+00  0.5929E+02
     18.139 -0.3407E-01  0.5929E+02
     18.278  0.2451E+00  0.5932E+02
     18.417  0.2631E+00  0.5936E+02
     18.556  0.4289E-01  0.5936E+02
     18.695 -0.1504E-01  0.5936E+02
     18.834 -0.3300E-02  0.5936E+02
     18.973 -0.3636E-03  0.5936E+02
     19.112 -0.5765E-02  0.5936E+02
     19.252 -0.5016E-01  0.5935E+02
     19.391 -0.2068E-02  0.5935E+02
     19.530  0.8339E+00  0.5947E+02
     19.669  0.1507E+01  0.5968E+02
     19.808  0.5713E+00  0.5976E+02
     19.947 -0.5454E-01  0.5975E+02
     20.086 -0.3510E-01  0.5974E+02
     20.225 -0.2958E-02  0.5974E+02
     20.364 -0.7670E-04  0.5974E+02
     20.503 -0.6914E-06  0.5974E+02
     20.642 -0.2256E-08  0.5974E+02
     20.781 -0.2713E-11  0.5974E+02
     20.920 -0.1226E-14  0.5974E+02
     21.059  0.0000E+00  0.5974E+02
     21.198  0.0000E+00  0.5974E+02
     21.337 -0.1944E-27  0.5974E+02
     21.476 -0.8270E-23  0.5974E+02
     21.615 -0.1326E-18  0.5974E+02
     21.755 -0.8001E-15  0.5974E+02
     21.894 -0.1747E-11  0.5974E+02
     22.033 -0.1459E-08  0.5974E+02
     22.172 -0.4495E-06  0.5974E+02
     22.311 -0.5011E-04  0.5974E+02
     22.450 -0.1942E-02  0.5974E+02
     22.589 -0.2320E-01  0.5974E+02
     22.728 -0.3683E-01  0.5974E+02
     22.867  0.3773E+00  0.5979E+02
     23.006  0.1004E+01  0.5993E+02
     23.145  0.5597E+00  0.6001E+02
     23.284 -0.3134E-03  0.6001E+02
     23.423 -0.3366E-01  0.6000E+02
     23.562 -0.3894E-02  0.6000E+02
     23.701 -0.1302E-03  0.6000E+02
     23.840 -0.1489E-05  0.6000E+02
     23.979 -0.6123E-08  0.6000E+02
     24.118 -0.9251E-11  0.6000E+02
     24.258 -0.5314E-14  0.6000E+02
     24.397  0.0000E+00  0.6000E+02
     24.536  0.0000E+00  0.6000E+02
     24.675  0.0000E+00  0.6000E+02
     24.814  0.0000E+00  0.6000E+02
     24.953  0.0000E+00  0.6000E+02
