    4    4    1    1
  0.1200752E+02  0.3635000E-09  0.3635000E-09  0.3635000E-09  0.5000000E-15
  1.000000000000000E-004
  CAR 
 unknown system                          
     44     10     30
 
  0.0000000E+00  0.0000000E+00  0.0000000E+00  0.8000000E-02
    1      -14.763881   1.000000
    2      -14.763881   1.000000
    3      -14.763881   1.000000
    4      -11.370486   1.000000
    5      -11.370486   1.000000
    6      -11.370486   1.000000
    7       -8.605251   1.000000
    8       -8.605251   1.000000
    9       -8.605251   1.000000
   10       -2.829145   1.000000
   11        7.822969   1.000000
   12        7.822969   1.000000
   13        7.822969   1.000000
   14        9.236021   1.001399
   15        9.236021   1.001399
   16        9.236021   1.001399
   17        9.236021   1.001399
   18        9.236021   1.001399
   19        9.236021   1.001399
   20        9.706775   0.587061
   21        9.706775   0.587061
   22        9.706775   0.587061
   23       13.799952  -0.000000
   24       13.799952  -0.000000
   25       13.799952  -0.000000
   26       18.278486   0.000000
   27       18.278486   0.000000
   28       18.278486   0.000000
   29       18.278486   0.000000
   30       18.278486   0.000000
 
  0.2000000E+00  0.0000000E+00  0.0000000E+00  0.4800000E-01
    1      -14.679409   1.000000
    2      -13.144528   1.000000
    3      -13.144528   1.000000
    4      -11.455390   1.000000
    5      -10.588052   1.000000
    6      -10.588052   1.000000
    7       -8.541126   1.000000
    8       -2.392693   1.000000
    9       -0.994903   1.000000
   10        1.068800   1.000000
   11        1.068800   1.000000
   12        1.750083   1.000000
   13        1.750083   1.000000
   14        4.509089   1.000000
   15        7.366336   1.000000
   16        7.366336   1.000000
   17        7.657194   1.000000
   18        7.657194   1.000000
   19        8.672057   1.000000
   20        8.672057   1.000000
   21        9.328064   1.008071
   22        9.328064   1.008071
   23       10.126389  -0.008136
   24       10.126389  -0.008136
   25       12.229261  -0.000000
   26       13.899521  -0.000000
   27       15.495799   0.000000
   28       15.495799   0.000000
   29       16.319921   0.000000
   30       16.319921   0.000000
 
  0.4000000E+00  0.0000000E+00  0.0000000E+00  0.4800000E-01
    1      -14.427408   1.000000
    2       -9.825798   1.000000
    3       -8.958421   1.000000
    4       -8.344677   1.000000
    5       -6.719339   1.000000
    6       -6.459825   1.000000
    7       -3.174009   1.000000
    8       -3.174009   1.000000
    9       -1.988495   1.000000
   10       -1.988495   1.000000
   11       -0.993038   1.000000
   12        1.309135   1.000000
   13        2.781520   1.000000
   14        2.781520   1.000000
   15        6.797835   1.000000
   16        6.797835   1.000000
   17        8.167576   1.000000
   18        8.167576   1.000000
   19        9.545781   1.012834
   20        9.545781   1.012834
   21       11.259019  -0.000000
   22       11.259019  -0.000000
   23       12.828873  -0.000000
   24       12.828873  -0.000000
   25       13.862328  -0.000000
   26       13.862328  -0.000000
   27       14.131028  -0.000000
   28       14.131028  -0.000000
   29       16.558903   0.000000
   30       16.558903   0.000000
 
  0.2000000E+00  0.2000000E+00  0.0000000E+00  0.9600000E-01
    1      -13.060734   1.000000
    2      -13.060734   1.000000
    3      -11.681466   1.000000
    4      -10.679588   1.000000
    5      -10.679588   1.000000
    6      -10.000510   1.000000
    7       -8.783026   1.000000
    8       -6.945361   1.000000
    9       -1.955915   1.000000
   10       -1.508425   1.000000
   11        0.217977   1.000000
   12        0.656930   1.000000
   13        0.656930   1.000000
   14        0.799051   1.000000
   15        4.922359   1.000000
   16        4.922359   1.000000
   17        7.099341   1.000000
   18        7.099341   1.000000
   19        7.515396   1.000000
   20        7.515396   1.000000
   21        8.236874   1.000000
   22        8.737309   1.000000
   23        9.182117   1.000396
   24       10.461387  -0.000001
   25       12.199975  -0.000000
   26       14.285479  -0.000000
   27       14.285479  -0.000000
   28       15.245290   0.000000
   29       16.011585   0.000000
   30       16.011585   0.000000
 
  0.4000000E+00  0.2000000E+00  0.0000000E+00  0.1920000E+00
    1      -10.575055   1.000000
    2       -9.640391   1.000000
    3       -8.950566   1.000000
    4       -7.255528   1.000000
    5       -7.035253   1.000000
    6       -5.688718   1.000000
    7       -4.634403   1.000000
    8       -0.539202   1.000000
    9        1.760958   1.000000
   10        2.369462   1.000000
   11        3.153182   1.000000
   12        4.290868   1.000000
   13        4.521883   1.000000
   14        5.214787   1.000000
   15        6.253956   1.000000
   16        7.487293   1.000000
   17        7.809403   1.000000
   18        8.535084   1.000000
   19        8.773752   1.000000
   20       10.237903  -0.000914
   21       10.280265  -0.000329
   22       11.964594  -0.000000
   23       12.133912  -0.000000
   24       12.799653  -0.000000
   25       13.211249  -0.000000
   26       13.811588  -0.000000
   27       15.610565   0.000000
   28       15.983183   0.000000
   29       16.441755   0.000000
   30       17.497204   0.000000
 
  0.4000000E+00  0.4000000E+00  0.0000000E+00  0.9600000E-01
    1       -9.992539   1.000000
    2       -9.513489   1.000000
    3       -9.513489   1.000000
    4       -9.380595   1.000000
    5       -8.882648   1.000000
    6       -6.521756   1.000000
    7       -6.521756   1.000000
    8       -4.060718   1.000000
    9        0.183662   1.000000
   10        0.845192   1.000000
   11        1.383745   1.000000
   12        1.383745   1.000000
   13        3.117444   1.000000
   14        3.117444   1.000000
   15        4.953203   1.000000
   16        6.187598   1.000000
   17        6.788883   1.000000
   18        6.788883   1.000000
   19        7.009374   1.000000
   20        7.844932   1.000000
   21        7.901244   1.000000
   22        9.084972   1.000027
   23        9.689378   0.657993
   24        9.689378   0.657993
   25       12.271705  -0.000000
   26       13.192287  -0.000000
   27       14.299810  -0.000000
   28       14.299810  -0.000000
   29       15.249522   0.000000
   30       15.249522   0.000000
 
  0.2000000E+00  0.2000000E+00  0.2000000E+00  0.6400000E-01
    1       -9.615602   1.000000
    2       -9.615602   1.000000
    3       -9.615602   1.000000
    4       -7.157575   1.000000
    5       -5.326925   1.000000
    6       -5.326925   1.000000
    7       -5.326925   1.000000
    8       -4.796426   1.000000
    9       -4.796426   1.000000
   10       -1.444321   1.000000
   11       -0.644857   1.000000
   12       -0.644857   1.000000
   13        5.410444   1.000000
   14        5.410444   1.000000
   15        5.410444   1.000000
   16        7.032114   1.000000
   17        7.032114   1.000000
   18        7.032114   1.000000
   19        8.985913   1.000001
   20        8.985913   1.000001
   21        8.985913   1.000001
   22       12.327990  -0.000000
   23       12.327990  -0.000000
   24       12.327990  -0.000000
   25       14.238257  -0.000000
   26       14.238257  -0.000000
   27       14.238257  -0.000000
   28       14.997739  -0.000000
   29       14.997739  -0.000000
   30       14.997739  -0.000000
 
  0.4000000E+00  0.2000000E+00  0.2000000E+00  0.1920000E+00
    1      -10.152640   1.000000
    2      -10.152640   1.000000
    3       -9.172372   1.000000
    4       -7.705656   1.000000
    5       -6.352689   1.000000
    6       -4.687948   1.000000
    7       -3.078853   1.000000
    8       -3.078853   1.000000
    9       -2.466059   1.000000
   10       -1.773770   1.000000
   11       -0.077365   1.000000
   12        2.106197   1.000000
   13        2.226376   1.000000
   14        4.750639   1.000000
   15        5.923496   1.000000
   16        5.923496   1.000000
   17        6.907780   1.000000
   18        6.907780   1.000000
   19        6.963048   1.000000
   20        8.462906   1.000000
   21        8.462906   1.000000
   22        9.308063   1.005770
   23        9.308063   1.005770
   24       12.864241  -0.000000
   25       12.864241  -0.000000
   26       13.764492  -0.000000
   27       14.168248  -0.000000
   28       16.147000   0.000000
   29       16.197461   0.000000
   30       16.197461   0.000000
 
  0.4000000E+00  0.4000000E+00  0.2000000E+00  0.1920000E+00
    1       -8.360432   1.000000
    2       -8.125997   1.000000
    3       -8.125997   1.000000
    4       -7.864553   1.000000
    5       -7.363471   1.000000
    6       -4.091138   1.000000
    7       -1.852927   1.000000
    8       -1.852927   1.000000
    9       -1.707395   1.000000
   10       -0.531559   1.000000
   11        1.307965   1.000000
   12        1.835189   1.000000
   13        1.835189   1.000000
   14        3.658776   1.000000
   15        3.658776   1.000000
   16        3.710037   1.000000
   17        4.757306   1.000000
   18        5.894550   1.000000
   19        6.492685   1.000000
   20        6.492685   1.000000
   21        8.315027   1.000000
   22        8.807344   1.000000
   23       10.591228  -0.000000
   24       10.591228  -0.000000
   25       11.754342  -0.000000
   26       11.754342  -0.000000
   27       12.941912  -0.000000
   28       13.120620  -0.000000
   29       17.729646   0.000000
   30       19.583522   0.000000
 
  0.4000000E+00  0.4000000E+00  0.4000000E+00  0.6400000E-01
    1       -8.482744   1.000000
    2       -8.482744   1.000000
    3       -8.482744   1.000000
    4       -7.380630   1.000000
    5       -7.380630   1.000000
    6       -7.380630   1.000000
    7       -2.545639   1.000000
    8       -2.545639   1.000000
    9       -2.545639   1.000000
   10       -0.974671   1.000000
   11       -0.974671   1.000000
   12        2.582058   1.000000
   13        3.902468   1.000000
   14        4.978845   1.000000
   15        4.978845   1.000000
   16        4.978845   1.000000
   17        5.898071   1.000000
   18        5.898071   1.000000
   19        5.898071   1.000000
   20        6.142500   1.000000
   21        6.142500   1.000000
   22        6.142500   1.000000
   23        6.674018   1.000000
   24        6.674018   1.000000
   25        7.427660   1.000000
   26        7.427660   1.000000
   27        7.427660   1.000000
   28        9.827749   0.129142
   29       22.952799   0.000000
   30       22.952799   0.000000
