<?xml version="1.0" encoding="ISO-8859-1"?>
<modeling>
 <generator>
  <i name="program" type="string">vasp </i>
  <i name="version" type="string">6.2.0  </i>
  <i name="subversion" type="string">18Jan21 (build Mar 17 2021 09:06:54) complex                          serial </i>
  <i name="platform" type="string">LinuxIFC </i>
  <i name="date" type="string">2021 08 03 </i>
  <i name="time" type="string">10:19:31 </i>
 </generator>
 <incar>
  <i type="string" name="PREC">normal</i>
  <i type="int" name="ICHARG">     1</i>
  <i type="int" name="IBRION">    -1</i>
  <i name="EDIFF">      0.00000100</i>
  <i type="int" name="NSW">     0</i>
  <i name="ENCUT">    120.00000000</i>
  <i type="int" name="NBANDS">    30</i>
  <i type="int" name="ISMEAR">     1</i>
  <i name="SIGMA">      0.20000000</i>
  <i type="logical" name="LCHARG"> T  </i>
  <i type="int" name="KPAR">     1</i>
  <i type="int" name="NCORE">     1</i>
  <i type="string" name="GGA">PE</i>
 </incar>
 <primitive_cell>
  <structure name="primitive_cell" >
   <crystal>
    <varray name="basis" >
     <v>       1.81750000      -1.81750000       0.00000000 </v>
     <v>       1.81750000       0.00000000       1.81750000 </v>
     <v>       0.00000000      -1.81750000       1.81750000 </v>
    </varray>
    <i name="volume">     12.00751822 </i>
    <varray name="rec_basis" >
     <v>       0.27510316      -0.27510316      -0.27510316 </v>
     <v>       0.27510316       0.27510316       0.27510316 </v>
     <v>      -0.27510316      -0.27510316       0.27510316 </v>
    </varray>
   </crystal>
   <varray name="positions" >
    <v>       0.00000000       0.00000000       0.00000000 </v>
   </varray>
  </structure>
  <varray name="primitive_index" >
   <v type="int" >        1 </v>
  </varray>
 </primitive_cell>
 <kpoints>
  <generation param="Monkhorst-Pack">
   <v type="int" name="divisions">       5        5        5 </v>
   <v name="usershift">      0.00000000       0.00000000       0.00000000 </v>
   <v name="genvec1">      0.20000000       0.00000000       0.00000000 </v>
   <v name="genvec2">      0.00000000       0.20000000       0.00000000 </v>
   <v name="genvec3">      0.00000000       0.00000000       0.20000000 </v>
   <v name="shift">      0.00000000       0.00000000       0.00000000 </v>
  </generation>
  <varray name="kpointlist" >
   <v>       0.00000000       0.00000000       0.00000000 </v>
   <v>       0.20000000       0.00000000       0.00000000 </v>
   <v>       0.40000000       0.00000000       0.00000000 </v>
   <v>       0.20000000       0.20000000       0.00000000 </v>
   <v>       0.40000000       0.20000000       0.00000000 </v>
   <v>       0.40000000       0.40000000       0.00000000 </v>
   <v>       0.20000000       0.20000000       0.20000000 </v>
   <v>       0.40000000       0.20000000       0.20000000 </v>
   <v>       0.40000000       0.40000000       0.20000000 </v>
   <v>       0.40000000       0.40000000       0.40000000 </v>
  </varray>
  <varray name="weights" >
   <v>       0.00800000 </v>
   <v>       0.04800000 </v>
   <v>       0.04800000 </v>
   <v>       0.09600000 </v>
   <v>       0.19200000 </v>
   <v>       0.09600000 </v>
   <v>       0.06400000 </v>
   <v>       0.19200000 </v>
   <v>       0.19200000 </v>
   <v>       0.06400000 </v>
  </varray>
 </kpoints>
 <parameters>
  <separator name="general" >
   <i type="string" name="SYSTEM">unknown system</i>
   <i type="logical" name="LCOMPAT"> F  </i>
  </separator>
  <separator name="electronic" >
   <i type="string" name="PREC">normal</i>
   <i name="ENMAX">    120.00000000</i>
   <i name="ENAUG">    586.98000000</i>
   <i name="EDIFF">      0.00000100</i>
   <i type="int" name="IALGO">    38</i>
   <i type="int" name="IWAVPR">     0</i>
   <i type="int" name="NBANDS">    30</i>
   <i type="int" name="NBANDSLOW">    -1</i>
   <i type="int" name="NBANDSHIGH">    -1</i>
   <i name="NELECT">     44.00000000</i>
   <i type="int" name="TURBO">     0</i>
   <i type="int" name="IRESTART">     0</i>
   <i type="int" name="NREBOOT">     0</i>
   <i type="int" name="NMIN">     0</i>
   <i name="EREF">      0.00000000</i>
   <separator name="electronic smearing" >
    <i type="int" name="ISMEAR">     1</i>
    <i name="SIGMA">      0.20000000</i>
    <i name="KSPACING">      0.50000000</i>
    <i type="logical" name="KGAMMA"> T  </i>
    <i type="logical" name="KBLOWUP"> T  </i>
   </separator>
   <separator name="electronic projectors" >
    <i type="logical" name="LREAL"> F  </i>
    <v name="ROPT">      0.00000000</v>
    <i type="int" name="LMAXPAW">  -100</i>
    <i type="int" name="LMAXMIX">     2</i>
    <i type="logical" name="NLSPLINE"> F  </i>
   </separator>
   <separator name="electronic startup" >
    <i type="int" name="ISTART">     0</i>
    <i type="int" name="ICHARG">     1</i>
    <i type="int" name="INIWAV">     1</i>
   </separator>
   <separator name="electronic spin" >
    <i type="int" name="ISPIN">     1</i>
    <i type="logical" name="LNONCOLLINEAR"> F  </i>
    <v name="MAGMOM">      1.00000000      1.00000000      1.00000000      1.00000000</v>
    <i name="NUPDOWN">     -1.00000000</i>
    <i type="logical" name="LSORBIT"> F  </i>
    <v name="SAXIS">      0.00000000      0.00000000      1.00000000</v>
    <i type="logical" name="LSPIRAL"> F  </i>
    <v name="QSPIRAL">      0.00000000      0.00000000      0.00000000</v>
    <i type="logical" name="LZEROZ"> F  </i>
   </separator>
   <separator name="electronic exchange-correlation" >
    <i type="logical" name="LASPH"> F  </i>
    <i type="logical" name="LMETAGGA"> F  </i>
   </separator>
   <separator name="electronic convergence" >
    <i type="int" name="NELM">    60</i>
    <i type="int" name="NELMDL">    -5</i>
    <i type="int" name="NELMIN">     2</i>
    <i name="ENINI">    120.00000000</i>
    <separator name="electronic convergence detail" >
     <i type="logical" name="LDIAG"> T  </i>
     <i type="logical" name="LSUBROT"> F  </i>
     <i name="WEIMIN">      0.00000000</i>
     <i name="EBREAK">      0.00000001</i>
     <i name="DEPER">      0.30000000</i>
     <i type="int" name="NRMM">     4</i>
     <i name="TIME">      0.40000000</i>
    </separator>
   </separator>
   <separator name="electronic mixer" >
    <i name="AMIX">      0.40000000</i>
    <i name="BMIX">      1.00000000</i>
    <i name="AMIN">      0.10000000</i>
    <i name="AMIX_MAG">      1.60000000</i>
    <i name="BMIX_MAG">      1.00000000</i>
    <separator name="electronic mixer details" >
     <i type="int" name="IMIX">     4</i>
     <i type="logical" name="MIXFIRST"> F  </i>
     <i type="int" name="MAXMIX">   -45</i>
     <i name="WC">    100.00000000</i>
     <i type="int" name="INIMIX">     1</i>
     <i type="int" name="MIXPRE">     1</i>
     <i type="int" name="MREMOVE">     5</i>
    </separator>
   </separator>
   <separator name="electronic dipolcorrection" >
    <i type="logical" name="LDIPOL"> F  </i>
    <i type="logical" name="LMONO"> F  </i>
    <i type="int" name="IDIPOL">     0</i>
    <i name="EPSILON">      1.00000000</i>
    <v name="DIPOL">   -100.00000000   -100.00000000   -100.00000000</v>
    <i name="EFIELD">      0.00000000</i>
   </separator>
  </separator>
  <separator name="grids" >
   <i type="int" name="NGX">    10</i>
   <i type="int" name="NGY">    10</i>
   <i type="int" name="NGZ">    10</i>
   <i type="int" name="NGXF">    20</i>
   <i type="int" name="NGYF">    20</i>
   <i type="int" name="NGZF">    20</i>
   <i type="logical" name="ADDGRID"> F  </i>
  </separator>
  <separator name="ionic" >
   <i type="int" name="NSW">     0</i>
   <i type="int" name="IBRION">    -1</i>
   <i type="int" name="MDALGO">     0</i>
   <i type="int" name="ISIF">     2</i>
   <i name="PSTRESS">      0.00000000</i>
   <i name="EDIFFG">      0.00001000</i>
   <i type="int" name="NFREE">     0</i>
   <i name="POTIM">      0.50000000</i>
   <i name="SMASS">     -3.00000000</i>
   <i name="SCALEE">      1.00000000</i>
  </separator>
  <separator name="ionic md" >
   <i name="TEBEG">      0.00010000</i>
   <i name="TEEND">      0.00010000</i>
   <i type="int" name="NBLOCK">     1</i>
   <i type="int" name="KBLOCK">     1</i>
   <i type="int" name="NPACO">   256</i>
   <i name="APACO">     16.00000000</i>
  </separator>
  <separator name="symmetry" >
   <i type="int" name="ISYM">     2</i>
   <i name="SYMPREC">      0.00001000</i>
  </separator>
  <separator name="dos" >
   <i type="int" name="LORBIT">     0</i>
   <v name="RWIGS">     -1.00000000</v>
   <i type="int" name="NEDOS">   301</i>
   <i name="EMIN">     10.00000000</i>
   <i name="EMAX">    -10.00000000</i>
   <i name="EFERMI">      0.00000000</i>
  </separator>
  <separator name="writing" >
   <i type="int" name="NWRITE">     2</i>
   <i type="logical" name="LWAVE"> T  </i>
   <i type="logical" name="LDOWNSAMPLE"> F  </i>
   <i type="logical" name="LCHARG"> T  </i>
   <i type="logical" name="LPARD"> F  </i>
   <i type="logical" name="LVTOT"> F  </i>
   <i type="logical" name="LVHAR"> F  </i>
   <i type="logical" name="LELF"> F  </i>
   <i type="logical" name="LOPTICS"> F  </i>
   <v name="STM">      0.00000000      0.00000000      0.00000000      0.00000000      0.00000000      0.00000000      0.00000000</v>
  </separator>
  <separator name="performance" >
   <i type="int" name="NPAR">     1</i>
   <i type="int" name="NSIM">     4</i>
   <i type="int" name="NBLK">    -1</i>
   <i type="logical" name="LPLANE"> T  </i>
   <i type="logical" name="LSCALAPACK"> F  </i>
   <i type="logical" name="LSCAAWARE"> F  </i>
   <i type="logical" name="LSCALU"> F  </i>
   <i type="logical" name="LASYNC"> F  </i>
   <i type="logical" name="LORBITALREAL"> F  </i>
  </separator>
  <separator name="miscellaneous" >
   <i type="int" name="IDIOT">     3</i>
   <i type="int" name="PHON_NSTRUCT">    -1</i>
   <i type="logical" name="LMUSIC"> F  </i>
   <v name="POMASS">     63.54600000</v>
   <v name="DARWINR">      0.00000000</v>
   <v name="DARWINV">      1.00000000</v>
   <i type="logical" name="LCORR"> T  </i>
  </separator>
  <i type="logical" name="GGA_COMPAT"> T  </i>
  <i type="logical" name="LBERRY"> F  </i>
  <i type="int" name="ICORELEVEL">     0</i>
  <i type="logical" name="LDAU"> F  </i>
  <i type="int" name="I_CONSTRAINED_M">     0</i>
  <separator name="electronic exchange-correlation" >
   <i type="string" name="GGA">PE</i>
   <i type="int" name="VOSKOWN">     0</i>
   <i type="logical" name="LHFCALC"> F  </i>
   <i type="string" name="PRECFOCK"></i>
   <i type="logical" name="LSYMGRAD"> F  </i>
   <i type="logical" name="LHFONE"> F  </i>
   <i type="logical" name="LRHFCALC"> F  </i>
   <i type="logical" name="LTHOMAS"> F  </i>
   <i type="logical" name="LMODELHF"> F  </i>
   <i type="logical" name="LFOCKACE"> F  </i>
   <i name="ENCUT4O">     -1.00000000</i>
   <i type="int" name="EXXOEP">     0</i>
   <i type="int" name="FOURORBIT">     0</i>
   <i name="AEXX">      0.00000000</i>
   <i name="HFALPHA">      0.00000000</i>
   <i name="MCALPHA">      0.00000000</i>
   <i name="ALDAX">      1.00000000</i>
   <i name="AGGAX">      1.00000000</i>
   <i name="ALDAC">      1.00000000</i>
   <i name="AGGAC">      1.00000000</i>
   <i type="int" name="NKREDX">     1</i>
   <i type="int" name="NKREDY">     1</i>
   <i type="int" name="NKREDZ">     1</i>
   <i type="logical" name="SHIFTRED"> F  </i>
   <i type="logical" name="ODDONLY"> F  </i>
   <i type="logical" name="EVENONLY"> F  </i>
   <i type="int" name="LMAXFOCK">     0</i>
   <i type="int" name="NMAXFOCKAE">     0</i>
   <i type="logical" name="LFOCKAEDFT"> F  </i>
   <i name="HFSCREEN">      0.00000000</i>
   <i name="HFSCREENC">      0.00000000</i>
   <i type="int" name="NBANDSGWLOW">     0</i>
  </separator>
  <separator name="vdW DFT" >
   <i type="logical" name="LUSE_VDW"> F  </i>
   <i name="Zab_VDW">     -0.84910000</i>
   <i name="PARAM1">      0.12340000</i>
   <i name="PARAM2">      1.00000000</i>
   <i name="PARAM3">      0.00000000</i>
  </separator>
  <separator name="model GW" >
   <i type="int" name="MODEL_GW">     0</i>
   <i name="MODEL_EPS0">      7.20451093</i>
   <i name="MODEL_ALPHA">      1.00000000</i>
  </separator>
  <separator name="linear response parameters" >
   <i type="logical" name="LEPSILON"> F  </i>
   <i type="logical" name="LRPA"> F  </i>
   <i type="logical" name="LNABLA"> F  </i>
   <i type="logical" name="LVEL"> F  </i>
   <i type="int" name="KINTER">     0</i>
   <i name="CSHIFT">      0.10000000</i>
   <i name="OMEGAMAX">     -1.00000000</i>
   <i name="DEG_THRESHOLD">      0.00200000</i>
   <i name="RTIME">     -0.10000000</i>
   <i name="WPLASMAI">      0.00000000</i>
   <v name="DFIELD">      0.00000000      0.00000000      0.00000000</v>
   <v name="WPLASMA">      0.00000000      0.00000000      0.00000000      0.00000000      0.00000000      0.00000000      0.00000000      0.00000000      0.00000000</v>
  </separator>
  <separator name="orbital magnetization" >
   <i type="logical" name="NUCIND"> F  </i>
   <v name="MAGPOS">      0.00000000      0.00000000      0.00000000</v>
   <i type="logical" name="LNICSALL"> T  </i>
   <i type="logical" name="ORBITALMAG"> F  </i>
   <i type="logical" name="LMAGBLOCH"> F  </i>
   <i type="logical" name="LCHIMAG"> F  </i>
   <i type="logical" name="LGAUGE"> T  </i>
   <i type="int" name="MAGATOM">     0</i>
   <v name="MAGDIPOL">      0.00000000      0.00000000      0.00000000</v>
   <v name="AVECCONST">      0.00000000      0.00000000      0.00000000</v>
  </separator>
  <separator name="response functions" >
   <i type="logical" name="LFINITE_TEMPERATURE"> F  </i>
   <i type="logical" name="LADDER"> F  </i>
   <i type="logical" name="LRPAFORCE"> F  </i>
   <i type="logical" name="LFXC"> F  </i>
   <i type="logical" name="LHARTREE"> T  </i>
   <i type="int" name="IBSE">     0</i>
   <v type="int" name="KPOINT">    -1     0     0     0</v>
   <i type="logical" name="LTCTC"> F  </i>
   <i type="logical" name="LTCTE"> F  </i>
   <i type="logical" name="LTETE"> F  </i>
   <i type="logical" name="LTRIPLET"> F  </i>
   <i type="logical" name="LFXCEPS"> F  </i>
   <i type="logical" name="LFXHEG"> F  </i>
   <i type="int" name="NATURALO">     2</i>
   <i type="logical" name="LHOLEGF"> F  </i>
   <i type="logical" name="L2ORDER"> F  </i>
   <i type="logical" name="LDMP1"> F  </i>
   <i type="logical" name="LMP2LT"> F  </i>
   <i type="logical" name="LSMP2LT"> F  </i>
   <i type="logical" name="LGWLF"> F  </i>
   <i name="ENCUTGW">     -2.00000000</i>
   <i name="ENCUTGWSOFT">     -2.00000000</i>
   <i name="ENCUTLF">     -1.00000000</i>
   <i type="logical" name="LESF_SPLINES"> F  </i>
   <i type="int" name="LMAXMP2">    -1</i>
   <i name="SCISSOR">      0.00000000</i>
   <i type="int" name="NOMEGA">     0</i>
   <i type="int" name="NOMEGAR">     0</i>
   <i type="int" name="NBANDSGW">    -1</i>
   <i type="int" name="NBANDSO">    -1</i>
   <i type="int" name="NBANDSV">    -1</i>
   <i type="int" name="NELM">     1</i>
   <i type="int" name="NELMHF">     1</i>
   <i type="int" name="DIM">     3</i>
   <i type="int" name="IESPILON">     4</i>
   <i type="int" name="ANTIRES">     0</i>
   <i name="OMEGAMAX">    -30.00000000</i>
   <i name="OMEGAMIN">    -30.00000000</i>
   <i name="OMEGATL">   -200.00000000</i>
   <i type="int" name="OMEGAGRID">     0</i>
   <i name="CSHIFT">     -0.10000000</i>
   <i type="logical" name="LSELFENERGY"> F  </i>
   <i type="logical" name="LSPECTRAL"> F  </i>
   <i type="logical" name="LSPECTRALGW"> F  </i>
   <i type="logical" name="LSINGLES"> F  </i>
   <i type="logical" name="LFERMIGW"> F  </i>
   <i type="logical" name="ODDONLYGW"> F  </i>
   <i type="logical" name="EVENONLYGW"> F  </i>
   <i type="int" name="NKREDLFX">     1</i>
   <i type="int" name="NKREDLFY">     1</i>
   <i type="int" name="NKREDLFZ">     1</i>
   <i type="int" name="MAXMEM">  2800</i>
   <i type="int" name="TELESCOPE">     0</i>
   <i type="int" name="NTAUPAR">    -1</i>
   <i type="int" name="NOMEGAPAR">    -1</i>
   <i name="DAMP_NEWTON">      0.80000001</i>
   <i name="LAMBDA">      1.00000000</i>
  </separator>
  <separator name="External order field" >
   <i name="OFIELD_KAPPA">      0.00000000</i>
   <v name="OFIELD_K">      0.00000000      0.00000000      0.00000000</v>
   <i name="OFIELD_Q6_NEAR">      0.00000000</i>
   <i name="OFIELD_Q6_FAR">      0.00000000</i>
   <i name="OFIELD_A">      0.00000000</i>
  </separator>
 </parameters>
 <atominfo>
  <atoms>       4 </atoms>
  <types>       1 </types>
  <array name="atoms" >
   <dimension dim="1">ion</dimension>
   <field type="string">element</field>
   <field type="int">atomtype</field>
   <set>
    <rc><c>Cu</c><c>   1</c></rc>
    <rc><c>Cu</c><c>   1</c></rc>
    <rc><c>Cu</c><c>   1</c></rc>
    <rc><c>Cu</c><c>   1</c></rc>
   </set>
  </array>
  <array name="atomtypes" >
   <dimension dim="1">type</dimension>
   <field type="int">atomspertype</field>
   <field type="string">element</field>
   <field>mass</field>
   <field>valence</field>
   <field type="string">pseudopotential</field>
   <set>
    <rc><c>   4</c><c>Cu</c><c>     63.54600000</c><c>     11.00000000</c><c>  PAW_PBE Cu 22Jun2005                  </c></rc>
   </set>
  </array>
 </atominfo>
 <structure name="initialpos" >
  <crystal>
   <varray name="basis" >
    <v>       3.63500000       0.00000000       0.00000000 </v>
    <v>       0.00000000       3.63500000       0.00000000 </v>
    <v>       0.00000000       0.00000000       3.63500000 </v>
   </varray>
   <i name="volume">     48.03007287 </i>
   <varray name="rec_basis" >
    <v>       0.27510316       0.00000000       0.00000000 </v>
    <v>       0.00000000       0.27510316       0.00000000 </v>
    <v>       0.00000000       0.00000000       0.27510316 </v>
   </varray>
  </crystal>
  <varray name="positions" >
   <v>       0.00000000       0.00000000       0.00000000 </v>
   <v>       0.50000000       0.50000000       0.00000000 </v>
   <v>       0.50000000       0.00000000       0.50000000 </v>
   <v>       0.00000000       0.50000000       0.50000000 </v>
  </varray>
 </structure>
 <calculation>
  <scstep>
   <time name="dav">    0.04    0.04</time>
   <time name="total">    0.05    0.05</time>
   <energy>
    <i name="alphaZ">    243.62337785 </i>
    <i name="ewald">  -4395.34838493 </i>
    <i name="hartreedc">  -1460.68390639 </i>
    <i name="XCdc">    182.95256956 </i>
    <i name="pawpsdc">   4912.82663951 </i>
    <i name="pawaedc">  -5336.19386850 </i>
    <i name="eentropy">     -0.00840546 </i>
    <i name="bandstr">    692.51617807 </i>
    <i name="atom">   5475.24942839 </i>
    <i name="e_fr_energy">    314.93362809 </i>
    <i name="e_wo_entrp">    314.94203355 </i>
    <i name="e_0_energy">    314.93642991 </i>
   </energy>
  </scstep>
  <scstep>
   <time name="dav">    0.05    0.05</time>
   <time name="total">    0.05    0.05</time>
   <energy>
    <i name="e_fr_energy">    219.96166620 </i>
    <i name="e_wo_entrp">    219.96603869 </i>
    <i name="e_0_energy">    219.96312370 </i>
   </energy>
  </scstep>
  <scstep>
   <time name="dav">    0.05    0.05</time>
   <time name="total">    0.05    0.05</time>
   <energy>
    <i name="e_fr_energy">    216.22656289 </i>
    <i name="e_wo_entrp">    216.22655412 </i>
    <i name="e_0_energy">    216.22655997 </i>
   </energy>
  </scstep>
  <scstep>
   <time name="dav">    0.06    0.06</time>
   <time name="total">    0.06    0.06</time>
   <energy>
    <i name="e_fr_energy">    216.17865955 </i>
    <i name="e_wo_entrp">    216.17904651 </i>
    <i name="e_0_energy">    216.17878854 </i>
   </energy>
  </scstep>
  <scstep>
   <time name="dav">    0.04    0.04</time>
   <time name="total">    0.05    0.05</time>
   <energy>
    <i name="e_fr_energy">    216.17772533 </i>
    <i name="e_wo_entrp">    216.17808827 </i>
    <i name="e_0_energy">    216.17784631 </i>
   </energy>
  </scstep>
  <scstep>
   <time name="dav">    0.04    0.04</time>
   <time name="total">    0.05    0.05</time>
   <energy>
    <i name="e_fr_energy">    486.01891755 </i>
    <i name="e_wo_entrp">    486.02750447 </i>
    <i name="e_0_energy">    486.02177986 </i>
   </energy>
  </scstep>
  <scstep>
   <time name="dav">    0.04    0.04</time>
   <time name="total">    0.05    0.05</time>
   <energy>
    <i name="e_fr_energy">    486.82700038 </i>
    <i name="e_wo_entrp">    486.83435103 </i>
    <i name="e_0_energy">    486.82945060 </i>
   </energy>
  </scstep>
  <scstep>
   <time name="dav">    0.04    0.04</time>
   <time name="total">    0.05    0.05</time>
   <energy>
    <i name="e_fr_energy">    485.99550678 </i>
    <i name="e_wo_entrp">    485.98982212 </i>
    <i name="e_0_energy">    485.99361189 </i>
   </energy>
  </scstep>
  <scstep>
   <time name="dav">    0.04    0.04</time>
   <time name="total">    0.05    0.05</time>
   <energy>
    <i name="e_fr_energy">    486.08046657 </i>
    <i name="e_wo_entrp">    486.08495750 </i>
    <i name="e_0_energy">    486.08196355 </i>
   </energy>
  </scstep>
  <scstep>
   <time name="dav">    0.04    0.04</time>
   <time name="total">    0.05    0.05</time>
   <energy>
    <i name="e_fr_energy">    486.08840163 </i>
    <i name="e_wo_entrp">    486.09482765 </i>
    <i name="e_0_energy">    486.09054364 </i>
   </energy>
  </scstep>
  <scstep>
   <time name="dav">    0.04    0.04</time>
   <time name="total">    0.05    0.05</time>
   <energy>
    <i name="e_fr_energy">    486.08853059 </i>
    <i name="e_wo_entrp">    486.09515851 </i>
    <i name="e_0_energy">    486.09073990 </i>
   </energy>
  </scstep>
  <scstep>
   <time name="dav">    0.04    0.04</time>
   <time name="total">    0.05    0.05</time>
   <energy>
    <i name="e_fr_energy">    486.08876885 </i>
    <i name="e_wo_entrp">    486.09569785 </i>
    <i name="e_0_energy">    486.09107852 </i>
   </energy>
  </scstep>
  <scstep>
   <time name="dav">    0.04    0.04</time>
   <time name="total">    0.05    0.05</time>
   <energy>
    <i name="e_fr_energy">    486.08877306 </i>
    <i name="e_wo_entrp">    486.09574695 </i>
    <i name="e_0_energy">    486.09109769 </i>
   </energy>
  </scstep>
  <scstep>
   <time name="dav">    0.03    0.03</time>
   <time name="total">    0.03    0.03</time>
   <energy>
    <i name="alphaZ">    243.62337785 </i>
    <i name="ewald">  -4395.34838493 </i>
    <i name="hartreedc">   -778.13608559 </i>
    <i name="XCdc">    147.84556333 </i>
    <i name="pawpsdc">   8814.10997660 </i>
    <i name="pawaedc">  -9034.92202754 </i>
    <i name="eentropy">     -0.00698050 </i>
    <i name="bandstr">     13.67390491 </i>
    <i name="atom">   5475.24942839 </i>
    <i name="e_fr_energy">    486.08877251 </i>
    <i name="e_wo_entrp">    486.09575301 </i>
    <i name="e_0_energy">    486.09109934 </i>
   </energy>
  </scstep>
  <structure>
   <crystal>
    <varray name="basis" >
     <v>       3.63500000       0.00000000       0.00000000 </v>
     <v>       0.00000000       3.63500000       0.00000000 </v>
     <v>       0.00000000       0.00000000       3.63500000 </v>
    </varray>
    <i name="volume">     48.03007287 </i>
    <varray name="rec_basis" >
     <v>       0.27510316       0.00000000       0.00000000 </v>
     <v>       0.00000000       0.27510316       0.00000000 </v>
     <v>       0.00000000       0.00000000       0.27510316 </v>
    </varray>
   </crystal>
   <varray name="positions" >
    <v>       0.00000000       0.00000000       0.00000000 </v>
    <v>       0.50000000       0.50000000       0.00000000 </v>
    <v>       0.50000000       0.00000000       0.50000000 </v>
    <v>       0.00000000       0.50000000       0.50000000 </v>
   </varray>
  </structure>
  <varray name="forces" >
   <v>       0.00000000       0.00000000      -0.00000000 </v>
   <v>      -0.00000000      -0.00000000      -0.00000000 </v>
   <v>       0.00000000      -0.00000000      -0.00000000 </v>
   <v>      -0.00000000       0.00000000       0.00000000 </v>
  </varray>
  <varray name="stress" >
   <v>  -69962.13127572       0.00000000       0.00000000 </v>
   <v>       0.00000000  -69962.13127572       0.00000000 </v>
   <v>      -0.00000000       0.00000000  -69962.13127572 </v>
  </varray>
  <energy>
   <i name="e_fr_energy">    486.08877251 </i>
   <i name="e_wo_entrp">    486.09575301 </i>
   <i name="e_0_energy">    486.09109934 </i>
  </energy>
  <time name="totalsc">    0.74    0.74</time>
  <eigenvalues>
   <array>
    <dimension dim="1">band</dimension>
    <dimension dim="2">kpoint</dimension>
    <dimension dim="3">spin</dimension>
    <field>eigene</field>
    <field>occ</field>
    <set>
     <set comment="spin 1">
      <set comment="kpoint 1">
       <r>  -14.7639    1.0000 </r>
       <r>  -14.7639    1.0000 </r>
       <r>  -14.7639    1.0000 </r>
       <r>  -11.3705    1.0000 </r>
       <r>  -11.3705    1.0000 </r>
       <r>  -11.3705    1.0000 </r>
       <r>   -8.6053    1.0000 </r>
       <r>   -8.6053    1.0000 </r>
       <r>   -8.6053    1.0000 </r>
       <r>   -2.8291    1.0000 </r>
       <r>    7.8230    1.0000 </r>
       <r>    7.8230    1.0000 </r>
       <r>    7.8230    1.0000 </r>
       <r>    9.2360    1.0014 </r>
       <r>    9.2360    1.0014 </r>
       <r>    9.2360    1.0014 </r>
       <r>    9.2360    1.0014 </r>
       <r>    9.2360    1.0014 </r>
       <r>    9.2360    1.0014 </r>
       <r>    9.7068    0.5871 </r>
       <r>    9.7068    0.5871 </r>
       <r>    9.7068    0.5871 </r>
       <r>   13.8000   -0.0000 </r>
       <r>   13.8000   -0.0000 </r>
       <r>   13.8000   -0.0000 </r>
       <r>   18.2785    0.0000 </r>
       <r>   18.2785    0.0000 </r>
       <r>   18.2785    0.0000 </r>
       <r>   18.2785    0.0000 </r>
       <r>   18.2785    0.0000 </r>
      </set>
      <set comment="kpoint 2">
       <r>  -14.6794    1.0000 </r>
       <r>  -13.1445    1.0000 </r>
       <r>  -13.1445    1.0000 </r>
       <r>  -11.4554    1.0000 </r>
       <r>  -10.5881    1.0000 </r>
       <r>  -10.5881    1.0000 </r>
       <r>   -8.5411    1.0000 </r>
       <r>   -2.3927    1.0000 </r>
       <r>   -0.9949    1.0000 </r>
       <r>    1.0688    1.0000 </r>
       <r>    1.0688    1.0000 </r>
       <r>    1.7501    1.0000 </r>
       <r>    1.7501    1.0000 </r>
       <r>    4.5091    1.0000 </r>
       <r>    7.3663    1.0000 </r>
       <r>    7.3663    1.0000 </r>
       <r>    7.6572    1.0000 </r>
       <r>    7.6572    1.0000 </r>
       <r>    8.6721    1.0000 </r>
       <r>    8.6721    1.0000 </r>
       <r>    9.3281    1.0081 </r>
       <r>    9.3281    1.0081 </r>
       <r>   10.1264   -0.0081 </r>
       <r>   10.1264   -0.0081 </r>
       <r>   12.2293   -0.0000 </r>
       <r>   13.8995   -0.0000 </r>
       <r>   15.4958    0.0000 </r>
       <r>   15.4958    0.0000 </r>
       <r>   16.3199    0.0000 </r>
       <r>   16.3199    0.0000 </r>
      </set>
      <set comment="kpoint 3">
       <r>  -14.4274    1.0000 </r>
       <r>   -9.8258    1.0000 </r>
       <r>   -8.9584    1.0000 </r>
       <r>   -8.3447    1.0000 </r>
       <r>   -6.7193    1.0000 </r>
       <r>   -6.4598    1.0000 </r>
       <r>   -3.1740    1.0000 </r>
       <r>   -3.1740    1.0000 </r>
       <r>   -1.9885    1.0000 </r>
       <r>   -1.9885    1.0000 </r>
       <r>   -0.9930    1.0000 </r>
       <r>    1.3091    1.0000 </r>
       <r>    2.7815    1.0000 </r>
       <r>    2.7815    1.0000 </r>
       <r>    6.7978    1.0000 </r>
       <r>    6.7978    1.0000 </r>
       <r>    8.1676    1.0000 </r>
       <r>    8.1676    1.0000 </r>
       <r>    9.5458    1.0128 </r>
       <r>    9.5458    1.0128 </r>
       <r>   11.2590   -0.0000 </r>
       <r>   11.2590   -0.0000 </r>
       <r>   12.8289   -0.0000 </r>
       <r>   12.8289   -0.0000 </r>
       <r>   13.8623   -0.0000 </r>
       <r>   13.8623   -0.0000 </r>
       <r>   14.1310   -0.0000 </r>
       <r>   14.1310   -0.0000 </r>
       <r>   16.5589    0.0000 </r>
       <r>   16.5589    0.0000 </r>
      </set>
      <set comment="kpoint 4">
       <r>  -13.0607    1.0000 </r>
       <r>  -13.0607    1.0000 </r>
       <r>  -11.6815    1.0000 </r>
       <r>  -10.6796    1.0000 </r>
       <r>  -10.6796    1.0000 </r>
       <r>  -10.0005    1.0000 </r>
       <r>   -8.7830    1.0000 </r>
       <r>   -6.9454    1.0000 </r>
       <r>   -1.9559    1.0000 </r>
       <r>   -1.5084    1.0000 </r>
       <r>    0.2180    1.0000 </r>
       <r>    0.6569    1.0000 </r>
       <r>    0.6569    1.0000 </r>
       <r>    0.7991    1.0000 </r>
       <r>    4.9224    1.0000 </r>
       <r>    4.9224    1.0000 </r>
       <r>    7.0993    1.0000 </r>
       <r>    7.0993    1.0000 </r>
       <r>    7.5154    1.0000 </r>
       <r>    7.5154    1.0000 </r>
       <r>    8.2369    1.0000 </r>
       <r>    8.7373    1.0000 </r>
       <r>    9.1821    1.0004 </r>
       <r>   10.4614   -0.0000 </r>
       <r>   12.2000   -0.0000 </r>
       <r>   14.2855   -0.0000 </r>
       <r>   14.2855   -0.0000 </r>
       <r>   15.2453    0.0000 </r>
       <r>   16.0116    0.0000 </r>
       <r>   16.0116    0.0000 </r>
      </set>
      <set comment="kpoint 5">
       <r>  -10.5751    1.0000 </r>
       <r>   -9.6404    1.0000 </r>
       <r>   -8.9506    1.0000 </r>
       <r>   -7.2555    1.0000 </r>
       <r>   -7.0353    1.0000 </r>
       <r>   -5.6887    1.0000 </r>
       <r>   -4.6344    1.0000 </r>
       <r>   -0.5392    1.0000 </r>
       <r>    1.7610    1.0000 </r>
       <r>    2.3695    1.0000 </r>
       <r>    3.1532    1.0000 </r>
       <r>    4.2909    1.0000 </r>
       <r>    4.5219    1.0000 </r>
       <r>    5.2148    1.0000 </r>
       <r>    6.2540    1.0000 </r>
       <r>    7.4873    1.0000 </r>
       <r>    7.8094    1.0000 </r>
       <r>    8.5351    1.0000 </r>
       <r>    8.7738    1.0000 </r>
       <r>   10.2379   -0.0009 </r>
       <r>   10.2803   -0.0003 </r>
       <r>   11.9646   -0.0000 </r>
       <r>   12.1339   -0.0000 </r>
       <r>   12.7997   -0.0000 </r>
       <r>   13.2112   -0.0000 </r>
       <r>   13.8116   -0.0000 </r>
       <r>   15.6106    0.0000 </r>
       <r>   15.9832    0.0000 </r>
       <r>   16.4418    0.0000 </r>
       <r>   17.4972    0.0000 </r>
      </set>
      <set comment="kpoint 6">
       <r>   -9.9925    1.0000 </r>
       <r>   -9.5135    1.0000 </r>
       <r>   -9.5135    1.0000 </r>
       <r>   -9.3806    1.0000 </r>
       <r>   -8.8826    1.0000 </r>
       <r>   -6.5218    1.0000 </r>
       <r>   -6.5218    1.0000 </r>
       <r>   -4.0607    1.0000 </r>
       <r>    0.1837    1.0000 </r>
       <r>    0.8452    1.0000 </r>
       <r>    1.3837    1.0000 </r>
       <r>    1.3837    1.0000 </r>
       <r>    3.1174    1.0000 </r>
       <r>    3.1174    1.0000 </r>
       <r>    4.9532    1.0000 </r>
       <r>    6.1876    1.0000 </r>
       <r>    6.7889    1.0000 </r>
       <r>    6.7889    1.0000 </r>
       <r>    7.0094    1.0000 </r>
       <r>    7.8449    1.0000 </r>
       <r>    7.9012    1.0000 </r>
       <r>    9.0850    1.0000 </r>
       <r>    9.6894    0.6580 </r>
       <r>    9.6894    0.6580 </r>
       <r>   12.2717   -0.0000 </r>
       <r>   13.1923   -0.0000 </r>
       <r>   14.2998   -0.0000 </r>
       <r>   14.2998   -0.0000 </r>
       <r>   15.2495    0.0000 </r>
       <r>   15.2495    0.0000 </r>
      </set>
      <set comment="kpoint 7">
       <r>   -9.6156    1.0000 </r>
       <r>   -9.6156    1.0000 </r>
       <r>   -9.6156    1.0000 </r>
       <r>   -7.1576    1.0000 </r>
       <r>   -5.3269    1.0000 </r>
       <r>   -5.3269    1.0000 </r>
       <r>   -5.3269    1.0000 </r>
       <r>   -4.7964    1.0000 </r>
       <r>   -4.7964    1.0000 </r>
       <r>   -1.4443    1.0000 </r>
       <r>   -0.6449    1.0000 </r>
       <r>   -0.6449    1.0000 </r>
       <r>    5.4104    1.0000 </r>
       <r>    5.4104    1.0000 </r>
       <r>    5.4104    1.0000 </r>
       <r>    7.0321    1.0000 </r>
       <r>    7.0321    1.0000 </r>
       <r>    7.0321    1.0000 </r>
       <r>    8.9859    1.0000 </r>
       <r>    8.9859    1.0000 </r>
       <r>    8.9859    1.0000 </r>
       <r>   12.3280   -0.0000 </r>
       <r>   12.3280   -0.0000 </r>
       <r>   12.3280   -0.0000 </r>
       <r>   14.2383   -0.0000 </r>
       <r>   14.2383   -0.0000 </r>
       <r>   14.2383   -0.0000 </r>
       <r>   14.9977   -0.0000 </r>
       <r>   14.9977   -0.0000 </r>
       <r>   14.9977   -0.0000 </r>
      </set>
      <set comment="kpoint 8">
       <r>  -10.1526    1.0000 </r>
       <r>  -10.1526    1.0000 </r>
       <r>   -9.1724    1.0000 </r>
       <r>   -7.7057    1.0000 </r>
       <r>   -6.3527    1.0000 </r>
       <r>   -4.6879    1.0000 </r>
       <r>   -3.0789    1.0000 </r>
       <r>   -3.0789    1.0000 </r>
       <r>   -2.4661    1.0000 </r>
       <r>   -1.7738    1.0000 </r>
       <r>   -0.0774    1.0000 </r>
       <r>    2.1062    1.0000 </r>
       <r>    2.2264    1.0000 </r>
       <r>    4.7506    1.0000 </r>
       <r>    5.9235    1.0000 </r>
       <r>    5.9235    1.0000 </r>
       <r>    6.9078    1.0000 </r>
       <r>    6.9078    1.0000 </r>
       <r>    6.9630    1.0000 </r>
       <r>    8.4629    1.0000 </r>
       <r>    8.4629    1.0000 </r>
       <r>    9.3081    1.0058 </r>
       <r>    9.3081    1.0058 </r>
       <r>   12.8642   -0.0000 </r>
       <r>   12.8642   -0.0000 </r>
       <r>   13.7645   -0.0000 </r>
       <r>   14.1682   -0.0000 </r>
       <r>   16.1470    0.0000 </r>
       <r>   16.1975    0.0000 </r>
       <r>   16.1975    0.0000 </r>
      </set>
      <set comment="kpoint 9">
       <r>   -8.3604    1.0000 </r>
       <r>   -8.1260    1.0000 </r>
       <r>   -8.1260    1.0000 </r>
       <r>   -7.8646    1.0000 </r>
       <r>   -7.3635    1.0000 </r>
       <r>   -4.0911    1.0000 </r>
       <r>   -1.8529    1.0000 </r>
       <r>   -1.8529    1.0000 </r>
       <r>   -1.7074    1.0000 </r>
       <r>   -0.5316    1.0000 </r>
       <r>    1.3080    1.0000 </r>
       <r>    1.8352    1.0000 </r>
       <r>    1.8352    1.0000 </r>
       <r>    3.6588    1.0000 </r>
       <r>    3.6588    1.0000 </r>
       <r>    3.7100    1.0000 </r>
       <r>    4.7573    1.0000 </r>
       <r>    5.8946    1.0000 </r>
       <r>    6.4927    1.0000 </r>
       <r>    6.4927    1.0000 </r>
       <r>    8.3150    1.0000 </r>
       <r>    8.8073    1.0000 </r>
       <r>   10.5912   -0.0000 </r>
       <r>   10.5912   -0.0000 </r>
       <r>   11.7543   -0.0000 </r>
       <r>   11.7543   -0.0000 </r>
       <r>   12.9419   -0.0000 </r>
       <r>   13.1206   -0.0000 </r>
       <r>   17.7296    0.0000 </r>
       <r>   19.5835    0.0000 </r>
      </set>
      <set comment="kpoint 10">
       <r>   -8.4827    1.0000 </r>
       <r>   -8.4827    1.0000 </r>
       <r>   -8.4827    1.0000 </r>
       <r>   -7.3806    1.0000 </r>
       <r>   -7.3806    1.0000 </r>
       <r>   -7.3806    1.0000 </r>
       <r>   -2.5456    1.0000 </r>
       <r>   -2.5456    1.0000 </r>
       <r>   -2.5456    1.0000 </r>
       <r>   -0.9747    1.0000 </r>
       <r>   -0.9747    1.0000 </r>
       <r>    2.5821    1.0000 </r>
       <r>    3.9025    1.0000 </r>
       <r>    4.9788    1.0000 </r>
       <r>    4.9788    1.0000 </r>
       <r>    4.9788    1.0000 </r>
       <r>    5.8981    1.0000 </r>
       <r>    5.8981    1.0000 </r>
       <r>    5.8981    1.0000 </r>
       <r>    6.1425    1.0000 </r>
       <r>    6.1425    1.0000 </r>
       <r>    6.1425    1.0000 </r>
       <r>    6.6740    1.0000 </r>
       <r>    6.6740    1.0000 </r>
       <r>    7.4277    1.0000 </r>
       <r>    7.4277    1.0000 </r>
       <r>    7.4277    1.0000 </r>
       <r>    9.8277    0.1291 </r>
       <r>   22.9528    0.0000 </r>
       <r>   22.9528    0.0000 </r>
      </set>
     </set>
    </set>
   </array>
  </eigenvalues>
  <separator name="orbital magnetization" >
   <v name="MAGDIPOLOUT">      0.00000000      0.00000000      0.00000000</v>
  </separator>
  <dos>
   <i name="efermi">      9.72747218 </i>
   <total>
    <array>
     <dimension dim="1">gridpoints</dimension>
     <dimension dim="2">spin</dimension>
     <field>energy</field>
     <field>total</field>
     <field>integrated</field>
     <set>
      <set comment="spin 1">
       <r>   -16.7639     0.0000     0.0000 </r>
       <r>   -16.6248     0.0000     0.0000 </r>
       <r>   -16.4858    -0.0000    -0.0000 </r>
       <r>   -16.3467    -0.0000    -0.0000 </r>
       <r>   -16.2077    -0.0000    -0.0000 </r>
       <r>   -16.0686    -0.0000    -0.0000 </r>
       <r>   -15.9295    -0.0000    -0.0000 </r>
       <r>   -15.7905    -0.0000    -0.0000 </r>
       <r>   -15.6514    -0.0000    -0.0000 </r>
       <r>   -15.5124    -0.0000    -0.0000 </r>
       <r>   -15.3733    -0.0000    -0.0000 </r>
       <r>   -15.2343    -0.0009    -0.0001 </r>
       <r>   -15.0952    -0.0103    -0.0016 </r>
       <r>   -14.9562    -0.0186    -0.0042 </r>
       <r>   -14.8171     0.1517     0.0169 </r>
       <r>   -14.6780     0.4890     0.0849 </r>
       <r>   -14.5390     0.4780     0.1514 </r>
       <r>   -14.3999     0.3980     0.2068 </r>
       <r>   -14.2609     0.2420     0.2404 </r>
       <r>   -14.1218     0.0154     0.2426 </r>
       <r>   -13.9828    -0.0159     0.2404 </r>
       <r>   -13.8437    -0.0024     0.2400 </r>
       <r>   -13.7047    -0.0005     0.2399 </r>
       <r>   -13.5656    -0.0102     0.2385 </r>
       <r>   -13.4265    -0.0696     0.2288 </r>
       <r>   -13.2875     0.0347     0.2337 </r>
       <r>   -13.1484     1.1702     0.3964 </r>
       <r>   -13.0094     2.1481     0.6951 </r>
       <r>   -12.8703     0.9684     0.8297 </r>
       <r>   -12.7313    -0.0323     0.8253 </r>
       <r>   -12.5922    -0.0598     0.8169 </r>
       <r>   -12.4532    -0.0065     0.8160 </r>
       <r>   -12.3141    -0.0003     0.8160 </r>
       <r>   -12.1750    -0.0018     0.8157 </r>
       <r>   -12.0360    -0.0197     0.8130 </r>
       <r>   -11.8969    -0.0247     0.8096 </r>
       <r>   -11.7579     0.3022     0.8516 </r>
       <r>   -11.6188     0.7730     0.9591 </r>
       <r>   -11.4798     0.6987     1.0562 </r>
       <r>   -11.3407     0.5207     1.1286 </r>
       <r>   -11.2017     0.1928     1.1554 </r>
       <r>   -11.0626    -0.0453     1.1491 </r>
       <r>   -10.9235    -0.1490     1.1284 </r>
       <r>   -10.7845     0.3787     1.1811 </r>
       <r>   -10.6454     2.5388     1.5341 </r>
       <r>   -10.5064     3.1979     1.9788 </r>
       <r>   -10.3673     0.9442     2.1101 </r>
       <r>   -10.2283     1.1146     2.2651 </r>
       <r>   -10.0892     3.4472     2.7444 </r>
       <r>    -9.9502     2.9390     3.1531 </r>
       <r>    -9.8111     1.1754     3.3166 </r>
       <r>    -9.6720     2.1244     3.6120 </r>
       <r>    -9.5330     4.0753     4.1787 </r>
       <r>    -9.3939     2.8729     4.5782 </r>
       <r>    -9.2549     1.3636     4.7678 </r>
       <r>    -9.1158     1.5720     4.9864 </r>
       <r>    -8.9768     2.3360     5.3112 </r>
       <r>    -8.8377     2.8297     5.7047 </r>
       <r>    -8.6987     1.5921     5.9261 </r>
       <r>    -8.5596     1.2609     6.1014 </r>
       <r>    -8.4205     2.6990     6.4767 </r>
       <r>    -8.2815     2.9471     6.8866 </r>
       <r>    -8.1424     2.9709     7.2997 </r>
       <r>    -8.0034     2.7684     7.6846 </r>
       <r>    -7.8643     1.9150     7.9509 </r>
       <r>    -7.7253     2.1469     8.2495 </r>
       <r>    -7.5862     1.4086     8.4453 </r>
       <r>    -7.4472     1.5143     8.6559 </r>
       <r>    -7.3081     3.7446     9.1766 </r>
       <r>    -7.1690     3.5769     9.6740 </r>
       <r>    -7.0300     2.5319    10.0261 </r>
       <r>    -6.8909     1.9044    10.2909 </r>
       <r>    -6.7519     0.6783    10.3852 </r>
       <r>    -6.6128     0.7640    10.4915 </r>
       <r>    -6.4738     2.1583    10.7916 </r>
       <r>    -6.3347     2.5773    11.1500 </r>
       <r>    -6.1957     1.2080    11.3180 </r>
       <r>    -6.0566     0.0120    11.3196 </r>
       <r>    -5.9175    -0.1375    11.3005 </r>
       <r>    -5.7785     0.5142    11.3720 </r>
       <r>    -5.6394     1.4377    11.5719 </r>
       <r>    -5.5004     0.9272    11.7009 </r>
       <r>    -5.3613     1.0089    11.8412 </r>
       <r>    -5.2223     1.3888    12.0343 </r>
       <r>    -5.0832     0.3378    12.0812 </r>
       <r>    -4.9442    -0.0966    12.0678 </r>
       <r>    -4.8051     1.1745    12.2311 </r>
       <r>    -4.6660     3.2978    12.6897 </r>
       <r>    -4.5270     2.6974    13.0648 </r>
       <r>    -4.3879     0.3611    13.1150 </r>
       <r>    -4.2489    -0.0286    13.1110 </r>
       <r>    -4.1098     1.5281    13.3235 </r>
       <r>    -3.9708     2.1259    13.6191 </r>
       <r>    -3.8317     0.5810    13.6999 </r>
       <r>    -3.6927    -0.1042    13.6854 </r>
       <r>    -3.5536    -0.0626    13.6767 </r>
       <r>    -3.4145    -0.1330    13.6582 </r>
       <r>    -3.2755     0.2012    13.6862 </r>
       <r>    -3.1364     2.3333    14.0107 </r>
       <r>    -2.9974     3.5056    14.4982 </r>
       <r>    -2.8583     1.1828    14.6626 </r>
       <r>    -2.7193    -0.1025    14.6484 </r>
       <r>    -2.5802     1.2952    14.8285 </r>
       <r>    -2.4412     3.0672    15.2550 </r>
       <r>    -2.3021     1.8035    15.5058 </r>
       <r>    -2.1630     0.0071    15.5068 </r>
       <r>    -2.0240     0.7395    15.6096 </r>
       <r>    -1.8849     3.9066    16.1528 </r>
       <r>    -1.7459     5.7790    16.9564 </r>
       <r>    -1.6068     3.5437    17.4492 </r>
       <r>    -1.4678     1.4496    17.6508 </r>
       <r>    -1.3287     0.7063    17.7490 </r>
       <r>    -1.1897     0.0565    17.7569 </r>
       <r>    -1.0506     0.7642    17.8631 </r>
       <r>    -0.9115     1.6487    18.0924 </r>
       <r>    -0.7725     0.8483    18.2103 </r>
       <r>    -0.6334     1.7934    18.4597 </r>
       <r>    -0.4944     3.6737    18.9706 </r>
       <r>    -0.3553     1.9081    19.2359 </r>
       <r>    -0.2163     0.2085    19.2649 </r>
       <r>    -0.0772     1.0745    19.4143 </r>
       <r>     0.0618     1.4617    19.6176 </r>
       <r>     0.2009     1.4507    19.8193 </r>
       <r>     0.3400     1.1202    19.9751 </r>
       <r>     0.4790     0.1906    20.0016 </r>
       <r>     0.6181     0.8733    20.1230 </r>
       <r>     0.7571     2.1629    20.4238 </r>
       <r>     0.8962     1.9466    20.6945 </r>
       <r>     1.0352     0.9718    20.8296 </r>
       <r>     1.1743     0.9209    20.9577 </r>
       <r>     1.3133     2.4639    21.3003 </r>
       <r>     1.4524     2.8705    21.6994 </r>
       <r>     1.5915     0.8981    21.8243 </r>
       <r>     1.7305     2.2824    22.1417 </r>
       <r>     1.8696     4.8648    22.8182 </r>
       <r>     2.0086     2.9402    23.2270 </r>
       <r>     2.1477     2.0452    23.5114 </r>
       <r>     2.2867     2.8677    23.9102 </r>
       <r>     2.4258     2.3222    24.2331 </r>
       <r>     2.5648     1.0953    24.3854 </r>
       <r>     2.7039     0.6859    24.4808 </r>
       <r>     2.8430     0.6726    24.5743 </r>
       <r>     2.9820     0.6400    24.6633 </r>
       <r>     3.1211     2.2893    24.9817 </r>
       <r>     3.2601     2.6083    25.3444 </r>
       <r>     3.3992     0.3801    25.3972 </r>
       <r>     3.5382     0.5333    25.4714 </r>
       <r>     3.6773     3.7113    25.9875 </r>
       <r>     3.8163     3.8838    26.5275 </r>
       <r>     3.9554     1.0919    26.6794 </r>
       <r>     4.0945     0.0505    26.6864 </r>
       <r>     4.2335     0.6636    26.7787 </r>
       <r>     4.3726     1.6431    27.0072 </r>
       <r>     4.5116     1.9448    27.2776 </r>
       <r>     4.6507     2.2991    27.5973 </r>
       <r>     4.7897     3.4650    28.0791 </r>
       <r>     4.9288     4.5231    28.7081 </r>
       <r>     5.0678     3.6194    29.2114 </r>
       <r>     5.2069     1.9534    29.4830 </r>
       <r>     5.3460     1.8754    29.7438 </r>
       <r>     5.4850     1.6517    29.9735 </r>
       <r>     5.6241     0.3012    30.0154 </r>
       <r>     5.7631     0.5808    30.0962 </r>
       <r>     5.9022     4.6375    30.7410 </r>
       <r>     6.0412     5.7041    31.5342 </r>
       <r>     6.1803     3.6253    32.0383 </r>
       <r>     6.3193     2.9340    32.4463 </r>
       <r>     6.4584     2.7045    32.8224 </r>
       <r>     6.5975     3.0195    33.2423 </r>
       <r>     6.7365     2.9523    33.6528 </r>
       <r>     6.8756     5.3941    34.4029 </r>
       <r>     7.0146     7.5131    35.4476 </r>
       <r>     7.1537     4.8689    36.1247 </r>
       <r>     7.2927     1.5128    36.3350 </r>
       <r>     7.4318     3.1655    36.7752 </r>
       <r>     7.5708     4.6796    37.4260 </r>
       <r>     7.7099     2.9333    37.8338 </r>
       <r>     7.8490     2.9398    38.2426 </r>
       <r>     7.9880     2.2765    38.5592 </r>
       <r>     8.1271     0.9452    38.6906 </r>
       <r>     8.2661     2.0858    38.9807 </r>
       <r>     8.4052     3.9608    39.5314 </r>
       <r>     8.5442     4.8725    40.2090 </r>
       <r>     8.6833     4.1290    40.7831 </r>
       <r>     8.8223     4.2408    41.3728 </r>
       <r>     8.9614     3.3315    41.8361 </r>
       <r>     9.1005     2.4075    42.1709 </r>
       <r>     9.2395     3.5108    42.6591 </r>
       <r>     9.3786     4.4439    43.2770 </r>
       <r>     9.5176     2.3651    43.6059 </r>
       <r>     9.6567     1.7361    43.8473 </r>
       <r>     9.7957     2.0052    44.1262 </r>
       <r>     9.9348     0.8033    44.2379 </r>
       <r>    10.0739     0.5096    44.3087 </r>
       <r>    10.2129     2.4011    44.6426 </r>
       <r>    10.3520     3.2622    45.0962 </r>
       <r>    10.4910     2.6353    45.4627 </r>
       <r>    10.6301     3.3296    45.9257 </r>
       <r>    10.7691     1.8922    46.1888 </r>
       <r>    10.9082     0.0217    46.1918 </r>
       <r>    11.0472    -0.1392    46.1725 </r>
       <r>    11.1863     0.3198    46.2169 </r>
       <r>    11.3254     0.7339    46.3190 </r>
       <r>    11.4644     0.2227    46.3500 </r>
       <r>    11.6035     0.2375    46.3830 </r>
       <r>    11.7425     2.2572    46.6969 </r>
       <r>    11.8816     3.1353    47.1329 </r>
       <r>    12.0206     2.3265    47.4564 </r>
       <r>    12.1597     2.9905    47.8722 </r>
       <r>    12.2987     3.8908    48.4132 </r>
       <r>    12.4378     2.3257    48.7366 </r>
       <r>    12.5769     0.0511    48.7438 </r>
       <r>    12.7159     0.8583    48.8631 </r>
       <r>    12.8550     5.0059    49.5592 </r>
       <r>    12.9940     5.7309    50.3561 </r>
       <r>    13.1331     3.7651    50.8797 </r>
       <r>    13.2721     3.2192    51.3273 </r>
       <r>    13.4112     1.0558    51.4741 </r>
       <r>    13.5502    -0.2841    51.4346 </r>
       <r>    13.6893     0.9313    51.5641 </r>
       <r>    13.8284     3.6235    52.0680 </r>
       <r>    13.9674     2.9731    52.4814 </r>
       <r>    14.1065     2.0804    52.7707 </r>
       <r>    14.2455     5.1563    53.4877 </r>
       <r>    14.3846     4.9643    54.1780 </r>
       <r>    14.5236     1.1147    54.3331 </r>
       <r>    14.6627    -0.2901    54.2927 </r>
       <r>    14.8017    -0.1057    54.2780 </r>
       <r>    14.9408     0.7082    54.3765 </r>
       <r>    15.0799     1.6108    54.6005 </r>
       <r>    15.2189     2.1008    54.8926 </r>
       <r>    15.3580     2.1275    55.1884 </r>
       <r>    15.4970     1.5312    55.4014 </r>
       <r>    15.6361     1.8562    55.6595 </r>
       <r>    15.7751     0.9763    55.7952 </r>
       <r>    15.9142     1.0129    55.9361 </r>
       <r>    16.0532     3.7219    56.4536 </r>
       <r>    16.1923     5.6173    57.2348 </r>
       <r>    16.3314     4.5242    57.8639 </r>
       <r>    16.4704     2.6793    58.2364 </r>
       <r>    16.6095     1.6594    58.4672 </r>
       <r>    16.7485     0.4293    58.5269 </r>
       <r>    16.8876    -0.0680    58.5174 </r>
       <r>    17.0266    -0.0415    58.5117 </r>
       <r>    17.1657    -0.0545    58.5041 </r>
       <r>    17.3047    -0.0148    58.5020 </r>
       <r>    17.4438     0.7678    58.6088 </r>
       <r>    17.5829     1.6706    58.8411 </r>
       <r>    17.7219     1.7780    59.0883 </r>
       <r>    17.8610     1.2576    59.2632 </r>
       <r>    18.0000     0.1975    59.2907 </r>
       <r>    18.1391    -0.0341    59.2859 </r>
       <r>    18.2781     0.2451    59.3200 </r>
       <r>    18.4172     0.2631    59.3566 </r>
       <r>    18.5562     0.0429    59.3626 </r>
       <r>    18.6953    -0.0150    59.3605 </r>
       <r>    18.8344    -0.0033    59.3600 </r>
       <r>    18.9734    -0.0004    59.3600 </r>
       <r>    19.1125    -0.0058    59.3592 </r>
       <r>    19.2515    -0.0502    59.3522 </r>
       <r>    19.3906    -0.0021    59.3519 </r>
       <r>    19.5296     0.8339    59.4679 </r>
       <r>    19.6687     1.5072    59.6774 </r>
       <r>    19.8077     0.5713    59.7569 </r>
       <r>    19.9468    -0.0545    59.7493 </r>
       <r>    20.0859    -0.0351    59.7444 </r>
       <r>    20.2249    -0.0030    59.7440 </r>
       <r>    20.3640    -0.0001    59.7440 </r>
       <r>    20.5030    -0.0000    59.7440 </r>
       <r>    20.6421    -0.0000    59.7440 </r>
       <r>    20.7811    -0.0000    59.7440 </r>
       <r>    20.9202    -0.0000    59.7440 </r>
       <r>    21.0592     0.0000    59.7440 </r>
       <r>    21.1983     0.0000    59.7440 </r>
       <r>    21.3374    -0.0000    59.7440 </r>
       <r>    21.4764    -0.0000    59.7440 </r>
       <r>    21.6155    -0.0000    59.7440 </r>
       <r>    21.7545    -0.0000    59.7440 </r>
       <r>    21.8936    -0.0000    59.7440 </r>
       <r>    22.0326    -0.0000    59.7440 </r>
       <r>    22.1717    -0.0000    59.7440 </r>
       <r>    22.3107    -0.0001    59.7440 </r>
       <r>    22.4498    -0.0019    59.7437 </r>
       <r>    22.5889    -0.0232    59.7405 </r>
       <r>    22.7279    -0.0368    59.7354 </r>
       <r>    22.8670     0.3773    59.7878 </r>
       <r>    23.0060     1.0040    59.9274 </r>
       <r>    23.1451     0.5597    60.0053 </r>
       <r>    23.2841    -0.0003    60.0052 </r>
       <r>    23.4232    -0.0337    60.0006 </r>
       <r>    23.5622    -0.0039    60.0000 </r>
       <r>    23.7013    -0.0001    60.0000 </r>
       <r>    23.8404    -0.0000    60.0000 </r>
       <r>    23.9794    -0.0000    60.0000 </r>
       <r>    24.1185    -0.0000    60.0000 </r>
       <r>    24.2575    -0.0000    60.0000 </r>
       <r>    24.3966     0.0000    60.0000 </r>
       <r>    24.5356     0.0000    60.0000 </r>
       <r>    24.6747     0.0000    60.0000 </r>
       <r>    24.8137     0.0000    60.0000 </r>
       <r>    24.9528     0.0000    60.0000 </r>
      </set>
     </set>
    </array>
   </total>
  </dos>
 </calculation>
 <structure name="finalpos" >
  <crystal>
   <varray name="basis" >
    <v>       3.63500000       0.00000000       0.00000000 </v>
    <v>       0.00000000       3.63500000       0.00000000 </v>
    <v>       0.00000000       0.00000000       3.63500000 </v>
   </varray>
   <i name="volume">     48.03007287 </i>
   <varray name="rec_basis" >
    <v>       0.27510316       0.00000000       0.00000000 </v>
    <v>       0.00000000       0.27510316       0.00000000 </v>
    <v>       0.00000000       0.00000000       0.27510316 </v>
   </varray>
  </crystal>
  <varray name="positions" >
   <v>       0.00000000       0.00000000       0.00000000 </v>
   <v>       0.50000000       0.50000000       0.00000000 </v>
   <v>       0.50000000       0.00000000       0.50000000 </v>
   <v>       0.00000000       0.50000000       0.50000000 </v>
  </varray>
 </structure>
</modeling>
