unknown system                          
   1.00000000000000     
     3.866000    0.000000    0.000000
     0.000000    3.866000    0.000000
     0.000000    0.000000    3.866000
   Pd   Ir   Pt   Cu
     1     1     1     1
Direct
  0.000000  0.000000  0.000000
  0.500000  0.500000  0.000000
  0.500000  0.000000  0.500000
  0.000000  0.500000  0.500000
 
   32   32   32
  359.58      343.09      300.81      247.75      195.00      145.59      100.16      62.510      37.356      24.321    
  17.393      13.243      10.998      9.9521      9.3873      8.9093      8.6832      8.9093      9.3873      9.9521    
  10.998      13.243      17.393      24.321      37.356      62.510      100.16      145.59      195.00      247.75    
  300.81      343.09      343.22      327.58      287.37      236.72      186.18      138.81      95.470      59.824    
  36.184      23.924      17.271      13.286      11.128      10.117      9.5685      9.1090      8.8930      9.1090    
  9.5685      10.117      11.128      13.286      17.271      23.924      36.184      59.824      95.470      138.81    
  186.18      236.72      287.37      327.58      300.65      287.12      252.15      207.64      162.78      120.83    
  83.102      52.818      33.161      22.875      16.958      13.429      11.516      10.609      10.114      9.7100    
  9.5233      9.7100      10.114      10.609      11.516      13.429      16.958      22.875      33.161      52.818    
  83.102      120.83      162.78      207.64      252.15      287.12      245.94      234.97      206.36      169.44    
  131.92      97.245      67.124      43.969      29.419      21.485      16.613      13.748      12.208      11.481    
  11.095      10.793      10.655      10.793      11.095      11.481      12.208      13.748      16.613      21.485    
  29.419      43.969      67.124      97.245      131.92      169.44      206.36      234.97      190.63      182.08    
  159.59      130.27      100.49      73.715      51.677      35.726      25.983      20.131      16.476      14.410    
  13.368      12.940      12.767      12.639      12.577      12.639      12.767      12.940      13.368      14.410    
  16.476      20.131      25.983      35.726      51.677      73.715      100.49      130.27      159.59      182.08    
  139.59      133.24      116.49      94.632      72.732      53.841      39.295      29.419      23.248      19.181    
  16.821      15.673      15.297      15.366      15.587      15.755      15.810      15.755      15.587      15.366    
  15.297      15.673      16.821      19.181      23.248      29.419      39.295      53.841      72.732      94.632    
  116.49      133.24      94.723      90.472      79.285      64.809      50.660      39.035      30.643      25.075    
  21.246      18.929      17.920      17.846      18.374      19.218      20.105      20.773      21.020      20.773    
  20.105      19.218      18.374      17.846      17.920      18.929      21.246      25.075      30.643      39.035    
  50.660      64.809      79.285      90.472      59.158      56.778      50.558      42.641      35.137      29.227    
  25.028      22.015      20.188      19.577      20.000      21.198      23.018      25.269      27.531      29.232    
  29.866      29.232      27.531      25.269      23.018      21.198      20.000      19.577      20.188      22.015    
  25.028      29.227      35.137      42.641      50.558      56.778      35.846      34.816      32.145      28.794    
  25.653      23.088      21.173      20.155      20.174      21.217      23.200      26.207      30.199      34.802    
  39.249      42.524      43.735      42.524      39.249      34.802      30.199      26.207      23.200      21.217    
  20.174      20.155      21.173      23.088      25.653      28.794      32.145      34.816      23.514      23.168    
  22.250      21.023      19.818      18.978      18.791      19.476      21.148      23.863      27.907      33.417    
  40.195      47.607      54.532      59.538      61.375      59.538      54.532      47.607      40.195      33.417    
  27.907      23.863      21.148      19.476      18.791      18.978      19.818      21.023      22.250      23.168    
  16.693      16.599      16.362      16.117      16.080      16.506      17.660      19.767      22.980      27.717    
  34.274      42.513      51.964      61.800      70.734      77.111      79.440      77.111      70.734      61.800    
  51.964      42.513      34.274      27.717      22.980      19.767      17.660      16.506      16.080      16.117    
  16.362      16.599      12.497      12.557      12.750      13.138      13.875      15.202      17.410      20.755    
  25.687      32.796      41.994      52.663      64.050      75.361      85.446      92.638      95.274      92.638    
  85.446      75.361      64.050      52.663      41.994      32.796      25.687      20.755      17.410      15.202    
  13.875      13.138      12.750      12.557      10.136      10.278      10.705      11.453      12.673      14.645    
  17.719      22.273      29.185      38.848      50.575      63.163      75.715      87.764      98.543      106.38    
  109.30      106.38      98.543      87.764      75.715      63.163      50.575      38.848      29.185      22.273    
  17.719      14.645      12.673      11.453      10.705      10.278      8.9507      9.1268      9.6524      10.575    
  12.084      14.528      18.323      24.142      33.140      45.344      59.384      73.532      86.966      99.789    
  111.65      120.62      124.04      120.62      111.65      99.789      86.966      73.532      59.384      45.344    
  33.140      24.142      18.323      14.528      12.084      10.575      9.6524      9.1268      8.2667      8.4588    
  9.0356      10.063      11.774      14.584      18.986      26.012      36.926      51.382      67.413      82.939    
  97.397      111.52      125.21      135.99      140.18      135.99      125.21      111.52      97.397      82.939    
  67.413      51.382      36.926      26.012      18.986      14.584      11.774      10.063      9.0356      8.4588    
  7.7196      7.9293      8.5594      9.6826      11.557      14.641      19.491      27.415      39.707      55.758    
  73.206      89.807      105.28      120.83      136.46      149.06      154.00      149.06      136.46      120.83    
  105.28      89.807      73.206      55.758      39.707      27.415      19.491      14.641      11.557      9.6826    
  8.5594      7.9293      7.4731      7.6924      8.3504      9.5200      11.465      14.656      19.678      27.937    
  40.736      57.368      75.339      92.361      108.27      124.46      140.94      154.31      159.58      154.31    
  140.94      124.46      108.27      92.361      75.339      57.368      40.736      27.937      19.678      14.656    
  11.465      9.5200      8.3504      7.6924      7.7196      7.9293      8.5594      9.6826      11.557      14.641    
  19.491      27.415      39.707      55.758      73.206      89.807      105.28      120.83      136.46      149.06    
  154.00      149.06      136.46      120.83      105.28      89.807      73.206      55.758      39.707      27.415    
  19.491      14.641      11.557      9.6826      8.5594      7.9293      8.2667      8.4588      9.0356      10.063    
  11.774      14.584      18.986      26.012      36.926      51.382      67.413      82.939      97.397      111.52    
  125.21      135.99      140.18      135.99      125.21      111.52      97.397      82.939      67.413      51.382    
  36.926      26.012      18.986      14.584      11.774      10.063      9.0356      8.4588      8.9507      9.1268    
  9.6524      10.575      12.084      14.528      18.323      24.142      33.140      45.344      59.384      73.532    
  86.966      99.789      111.65      120.62      124.04      120.62      111.65      99.789      86.966      73.532    
  59.384      45.344      33.140      24.142      18.323      14.528      12.084      10.575      9.6524      9.1268    
  10.136      10.278      10.705      11.453      12.673      14.645      17.719      22.273      29.185      38.848    
  50.575      63.163      75.715      87.764      98.543      106.38      109.30      106.38      98.543      87.764    
  75.715      63.163      50.575      38.848      29.185      22.273      17.719      14.645      12.673      11.453    
  10.705      10.278      12.497      12.557      12.750      13.138      13.875      15.202      17.410      20.755    
  25.687      32.796      41.994      52.663      64.050      75.361      85.446      92.638      95.274      92.638    
  85.446      75.361      64.050      52.663      41.994      32.796      25.687      20.755      17.410      15.202    
  13.875      13.138      12.750      12.557      16.693      16.599      16.362      16.117      16.080      16.506    
  17.660      19.767      22.980      27.717      34.274      42.513      51.964      61.800      70.734      77.111    
  79.440      77.111      70.734      61.800      51.964      42.513      34.274      27.717      22.980      19.767    
  17.660      16.506      16.080      16.117      16.362      16.599      23.514      23.168      22.250      21.023    
  19.818      18.978      18.791      19.476      21.148      23.863      27.907      33.417      40.195      47.607    
  54.532      59.538      61.375      59.538      54.532      47.607      40.195      33.417      27.907      23.863    
  21.148      19.476      18.791      18.978      19.818      21.023      22.250      23.168      35.846      34.816    
  32.145      28.794      25.653      23.088      21.173      20.155      20.174      21.217      23.200      26.207    
  30.199      34.802      39.249      42.524      43.735      42.524      39.249      34.802      30.199      26.207    
  23.200      21.217      20.174      20.155      21.173      23.088      25.653      28.794      32.145      34.816    
  59.158      56.778      50.558      42.641      35.137      29.227      25.028      22.015      20.188      19.577    
  20.000      21.198      23.018      25.269      27.531      29.232      29.866      29.232      27.531      25.269    
  23.018      21.198      20.000      19.577      20.188      22.015      25.028      29.227      35.137      42.641    
  50.558      56.778      94.723      90.472      79.285      64.809      50.660      39.035      30.643      25.075    
  21.246      18.929      17.920      17.846      18.374      19.218      20.105      20.773      21.020      20.773    
  20.105      19.218      18.374      17.846      17.920      18.929      21.246      25.075      30.643      39.035    
  50.660      64.809      79.285      90.472      139.59      133.24      116.49      94.632      72.732      53.841    
  39.295      29.419      23.248      19.181      16.821      15.673      15.297      15.366      15.587      15.755    
  15.810      15.755      15.587      15.366      15.297      15.673      16.821      19.181      23.248      29.419    
  39.295      53.841      72.732      94.632      116.49      133.24      190.63      182.08      159.59      130.27    
  100.49      73.715      51.677      35.726      25.983      20.131      16.476      14.410      13.368      12.940    
  12.767      12.639      12.577      12.639      12.767      12.940      13.368      14.410      16.476      20.131    
  25.983      35.726      51.677      73.715      100.49      130.27      159.59      182.08      245.94      234.97    
  206.36      169.44      131.92      97.245      67.124      43.969      29.419      21.485      16.613      13.748    
  12.208      11.481      11.095      10.793      10.655      10.793      11.095      11.481      12.208      13.748    
  16.613      21.485      29.419      43.969      67.124      97.245      131.92      169.44      206.36      234.97    
  300.65      287.12      252.15      207.64      162.78      120.83      83.102      52.818      33.161      22.875    
  16.958      13.429      11.516      10.609      10.114      9.7100      9.5233      9.7100      10.114      10.609    
  11.516      13.429      16.958      22.875      33.161      52.818      83.102      120.83      162.78      207.64    
  252.15      287.12      343.22      327.58      287.37      236.72      186.18      138.81      95.470      59.824    
  36.184      23.924      17.271      13.286      11.128      10.117      9.5685      9.1090      8.8930      9.1090    
  9.5685      10.117      11.128      13.286      17.271      23.924      36.184      59.824      95.470      138.81    
  186.18      236.72      287.37      327.58      343.49      327.90      287.83      237.28      186.71      139.20    
  95.683      59.900      36.192      23.914      17.262      13.285      11.137      10.137      9.5982      9.1456    
  8.9320      9.1456      9.5982      10.137      11.137      13.285      17.262      23.914      36.192      59.900    
  95.683      139.20      186.71      237.28      287.83      327.90      328.42      313.59      275.38      227.00    
  178.43      132.82      91.269      57.382      35.096      23.536      17.144      13.325      11.262      10.296    
  9.7735      9.3387      9.1348      9.3387      9.7735      10.296      11.262      13.325      17.144      23.536    
  35.096      57.382      91.269      132.82      178.43      227.00      275.38      313.59      288.97      276.05    
  242.57      199.74      156.40      115.86      79.622      50.810      32.267      22.528      16.841      13.463    
  11.636      10.770      10.300      9.9195      9.7439      9.9195      10.300      10.770      11.636      13.463    
  16.841      22.528      32.267      50.810      79.622      115.86      156.40      199.74      242.57      276.05    
  237.67      227.08      199.43      163.62      127.14      93.517      64.542      42.497      28.751      21.183    
  16.507      13.769      12.302      11.612      11.248      10.965      10.837      10.965      11.248      11.612    
  12.302      13.769      16.507      21.183      28.751      42.497      64.542      93.517      127.14      163.62    
  199.43      227.08      184.91      176.59      154.70      126.12      97.101      71.118      49.921      34.736    
  25.496      19.872      16.372      14.404      13.419      13.019      12.863      12.749      12.693      12.749    
  12.863      13.019      13.419      14.404      16.372      19.872      25.496      34.736      49.921      71.118    
  97.101      126.12      154.70      176.59      135.46      129.28      112.98      91.687      70.396      52.122    
  38.170      28.768      22.856      18.951      16.701      15.619      15.276      15.359      15.585      15.758    
  15.815      15.758      15.585      15.359      15.276      15.619      16.701      18.951      22.856      28.768    
  38.170      52.122      70.396      91.687      112.98      129.28      91.762      87.644      76.807      62.795    
  49.133      37.960      29.937      24.604      20.915      18.703      17.757      17.711      18.243      19.077    
  19.944      20.593      20.833      20.593      19.944      19.077      18.243      17.711      17.757      18.703    
  20.915      24.604      29.937      37.960      49.133      62.795      76.807      87.644      57.282      54.996    
  49.021      41.424      34.236      28.584      24.546      21.634      19.889      19.326      19.763      20.946    
  22.710      24.876      27.045      28.674      29.280      28.674      27.045      24.876      22.710      20.946    
  19.763      19.326      19.889      21.634      24.546      28.584      34.236      41.424      49.021      54.996    
  34.888      33.906      31.360      28.162      25.150      22.662      20.808      19.837      19.877      20.914    
  22.852      25.758      29.595      34.007      38.260      41.387      42.543      41.387      38.260      34.007    
  29.595      25.758      22.852      20.914      19.877      19.837      20.808      22.662      25.150      28.162    
  31.360      33.906      23.087      22.753      21.861      20.665      19.494      18.682      18.510      19.188    
  20.830      23.477      27.392      32.712      39.237      46.351      52.976      57.755      59.506      57.755    
  52.976      46.351      39.237      32.712      27.392      23.477      20.830      19.188      18.510      18.682    
  19.494      20.665      21.861      22.753      16.475      16.383      16.152      15.916      15.883      16.302    
  17.428      19.485      22.618      27.215      33.577      41.569      50.708      60.172      68.721      74.797    
  77.011      74.797      68.721      60.172      50.708      41.569      33.577      27.215      22.618      19.485    
  17.428      16.302      15.883      15.916      16.152      16.383      12.434      12.491      12.675      13.050    
  13.764      15.053      17.202      20.465      25.256      32.172      41.151      51.573      62.649      73.553    
  83.178      89.988      92.473      89.988      83.178      73.553      62.649      51.573      41.151      32.172    
  25.256      20.465      17.202      15.053      13.764      13.050      12.675      12.491      10.184      10.319    
  10.724      11.440      12.617      14.529      17.521      21.954      28.675      38.122      49.651      62.045    
  74.320      85.928      96.134      103.47      106.18      103.47      96.134      85.928      74.320      62.045    
  49.651      38.122      28.675      21.954      17.521      14.529      12.617      11.440      10.724      10.319    
  9.0765      9.2415      9.7365      10.614      12.064      14.430      18.128      23.784      32.554      44.541    
  58.433      72.458      85.640      97.933      109.03      117.29      120.41      117.29      109.03      97.933    
  85.640      72.458      58.433      44.541      32.554      23.784      18.128      14.430      12.064      10.614    
  9.7365      9.2415      8.4571      8.6350      9.1727      10.143      11.781      14.501      18.787      25.614    
  36.276      50.526      66.459      81.918      96.107      109.55      122.22      132.03      135.81      132.03    
  122.22      109.55      96.107      81.918      66.459      50.526      36.276      25.614      18.787      14.501    
  11.781      10.143      9.1727      8.6350      7.9664      8.1591      8.7424      9.7979      11.589      14.570    
  19.289      26.989      39.014      54.867      72.253      88.813      103.97      118.69      133.06      144.46    
  148.91      144.46      133.06      118.69      103.97      88.813      72.253      54.867      39.014      26.989    
  19.289      14.570      11.589      9.7979      8.7424      8.1591      7.7445      7.9455      8.5534      9.6506    
  11.507      14.591      19.475      27.501      40.027      56.465      74.385      91.374      106.95      122.25    
  137.36      149.45      154.18      149.45      137.36      122.25      106.95      91.374      74.385      56.465    
  40.027      27.501      19.475      14.591      11.507      9.6506      8.5534      7.9455      7.9664      8.1591    
  8.7424      9.7979      11.589      14.570      19.289      26.989      39.014      54.867      72.253      88.813    
  103.97      118.69      133.06      144.46      148.91      144.46      133.06      118.69      103.97      88.813    
  72.253      54.867      39.014      26.989      19.289      14.570      11.589      9.7979      8.7424      8.1591    
  8.4571      8.6350      9.1727      10.143      11.781      14.501      18.787      25.614      36.276      50.526    
  66.459      81.918      96.107      109.55      122.22      132.03      135.81      132.03      122.22      109.55    
  96.107      81.918      66.459      50.526      36.276      25.614      18.787      14.501      11.781      10.143    
  9.1727      8.6350      9.0765      9.2415      9.7365      10.614      12.064      14.430      18.128      23.784    
  32.554      44.541      58.433      72.458      85.640      97.933      109.03      117.29      120.41      117.29    
  109.03      97.933      85.640      72.458      58.433      44.541      32.554      23.784      18.128      14.430    
  12.064      10.614      9.7365      9.2415      10.184      10.319      10.724      11.440      12.617      14.529    
  17.521      21.954      28.675      38.122      49.651      62.045      74.320      85.928      96.134      103.47    
  106.18      103.47      96.134      85.928      74.320      62.045      49.651      38.122      28.675      21.954    
  17.521      14.529      12.617      11.440      10.724      10.319      12.434      12.491      12.675      13.050    
  13.764      15.053      17.202      20.465      25.256      32.172      41.151      51.573      62.649      73.553    
  83.178      89.988      92.473      89.988      83.178      73.553      62.649      51.573      41.151      32.172    
  25.256      20.465      17.202      15.053      13.764      13.050      12.675      12.491      16.475      16.383    
  16.152      15.916      15.883      16.302      17.428      19.485      22.618      27.215      33.577      41.569    
  50.708      60.172      68.721      74.797      77.011      74.797      68.721      60.172      50.708      41.569    
  33.577      27.215      22.618      19.485      17.428      16.302      15.883      15.916      16.152      16.383    
  23.087      22.753      21.861      20.665      19.494      18.682      18.510      19.188      20.830      23.477    
  27.392      32.712      39.237      46.351      52.976      57.755      59.506      57.755      52.976      46.351    
  39.237      32.712      27.392      23.477      20.830      19.188      18.510      18.682      19.494      20.665    
  21.861      22.753      34.888      33.906      31.360      28.162      25.150      22.662      20.808      19.837    
  19.877      20.914      22.852      25.758      29.595      34.007      38.260      41.387      42.543      41.387    
  38.260      34.007      29.595      25.758      22.852      20.914      19.877      19.837      20.808      22.662    
  25.150      28.162      31.360      33.906      57.282      54.996      49.021      41.424      34.236      28.584    
  24.546      21.634      19.889      19.326      19.763      20.946      22.710      24.876      27.045      28.674    
  29.280      28.674      27.045      24.876      22.710      20.946      19.763      19.326      19.889      21.634    
  24.546      28.584      34.236      41.424      49.021      54.996      91.762      87.644      76.807      62.795    
  49.133      37.960      29.937      24.604      20.915      18.703      17.757      17.711      18.243      19.077    
  19.944      20.593      20.833      20.593      19.944      19.077      18.243      17.711      17.757      18.703    
  20.915      24.604      29.937      37.960      49.133      62.795      76.807      87.644      135.46      129.28    
  112.98      91.687      70.396      52.122      38.170      28.768      22.856      18.951      16.701      15.619    
  15.276      15.359      15.585      15.758      15.815      15.758      15.585      15.359      15.276      15.619    
  16.701      18.951      22.856      28.768      38.170      52.122      70.396      91.687      112.98      129.28    
  184.91      176.59      154.70      126.12      97.101      71.118      49.921      34.736      25.496      19.872    
  16.372      14.404      13.419      13.019      12.863      12.749      12.693      12.749      12.863      13.019    
  13.419      14.404      16.372      19.872      25.496      34.736      49.921      71.118      97.101      126.12    
  154.70      176.59      237.67      227.08      199.43      163.62      127.14      93.517      64.542      42.497    
  28.751      21.183      16.507      13.769      12.302      11.612      11.248      10.965      10.837      10.965    
  11.248      11.612      12.302      13.769      16.507      21.183      28.751      42.497      64.542      93.517    
  127.14      163.62      199.43      227.08      288.97      276.05      242.57      199.74      156.40      115.86    
  79.622      50.810      32.267      22.528      16.841      13.463      11.636      10.770      10.300      9.9195    
  9.7439      9.9195      10.300      10.770      11.636      13.463      16.841      22.528      32.267      50.810    
  79.622      115.86      156.40      199.74      242.57      276.05      328.42      313.59      275.38      227.00    
  178.43      132.82      91.269      57.382      35.096      23.536      17.144      13.325      11.262      10.296    
  9.7735      9.3387      9.1348      9.3387      9.7735      10.296      11.262      13.325      17.144      23.536    
  35.096      57.382      91.269      132.82      178.43      227.00      275.38      313.59      301.46      288.13    
  253.61      209.40      164.45      122.04      83.742      53.028      33.168      22.832      16.918      13.411    
  11.523      10.639      10.163      9.7728      9.5911      9.7728      10.163      10.639      11.523      13.411    
  16.918      22.832      33.168      53.028      83.742      122.04      164.45      209.40      253.61      288.13    
  289.52      276.75      243.57      200.96      157.55      116.69      80.057      50.948      32.267      22.496    
  16.811      13.447      11.635      10.783      10.324      9.9501      9.7771      9.9501      10.324      10.783    
  11.635      13.447      16.811      22.496      32.267      50.948      80.057      116.69      157.55      200.96    
  243.57      276.75      257.71      246.35      216.68      178.28      139.00      102.38      70.301      45.508    
  29.929      21.586      16.536      13.568      11.972      11.214      10.805      10.482      10.334      10.482    
  10.805      11.214      11.972      13.568      16.536      21.586      29.929      45.508      70.301      102.38    
  139.00      178.28      216.68      246.35      214.78      205.23      180.16      147.41      113.91      83.320    
  57.589      38.597      26.986      20.366      16.232      13.840      12.569      11.976      11.669      11.436    
  11.330      11.436      11.669      11.976      12.569      13.840      16.232      20.366      26.986      38.597    
  57.589      83.320      113.91      147.41      180.16      205.23      168.48      160.85      140.72      114.33    
  87.580      63.952      45.168      32.092      24.177      19.173      16.102      14.403      13.569      13.245    
  13.132      13.054      13.015      13.054      13.132      13.245      13.569      14.403      16.102      19.173    
  24.177      32.092      45.168      63.952      87.580      114.33      140.72      160.85      123.42      117.75    
  102.77      83.237      63.804      47.372      35.115      27.004      21.779      18.329      16.385      15.482    
  15.232      15.351      15.592      15.776      15.839      15.776      15.592      15.351      15.232      15.482    
  16.385      18.329      21.779      27.004      35.115      47.372      63.804      83.237      102.77      117.75    
  83.208      79.487      69.700      57.082      44.865      35.000      28.010      23.292      20.003      18.089    
  17.318      17.349      17.894      18.701      19.519      20.124      20.346      20.124      19.519      18.701    
  17.894      17.349      17.318      18.089      20.003      23.292      28.010      35.000      44.865      57.082    
  69.700      79.487      52.000      49.982      44.717      38.043      31.755      26.813      23.199      20.579    
  19.067      18.638      19.113      20.258      21.884      23.829      25.755      27.193      27.728      27.193    
  25.755      23.829      21.884      20.258      19.113      18.638      19.067      20.579      23.199      26.813    
  31.755      38.043      44.717      49.982      32.265      31.416      29.210      26.425      23.754      21.471    
  19.796      18.958      19.058      20.075      21.897      24.534      27.961      31.862      35.599      38.335    
  39.344      38.335      35.599      31.862      27.961      24.534      21.897      20.075      19.058      18.958    
  19.796      21.471      23.754      26.425      29.210      31.416      21.905      21.600      20.774      19.668    
  18.597      17.868      17.737      18.393      19.945      22.408      25.969      30.765      36.606      42.919    
  48.750      52.927      54.452      52.927      48.750      42.919      36.606      30.765      25.969      22.408    
  19.945      18.393      17.737      17.868      18.597      19.668      20.774      21.600      15.872      15.788    
  15.579      15.369      15.348      15.744      16.792      18.703      21.609      25.809      31.619      38.915    
  47.203      55.676      63.214      68.506      70.421      68.506      63.214      55.676      47.203      38.915    
  31.619      25.809      21.609      18.703      16.792      15.744      15.348      15.369      15.579      15.788    
  12.246      12.298      12.467      12.811      13.468      14.652      16.632      19.656      24.046      30.399    
  38.730      48.438      58.660      68.503      76.954      82.797      84.903      82.797      76.954      68.503    
  58.660      48.438      38.730      30.399      24.046      19.656      16.632      14.652      13.468      12.811    
  12.467      12.298      10.253      10.374      10.740      11.390      12.464      14.216      16.975      21.066    