unknown system                          
   1.00000000000000     
     3.866000    0.000000    0.000000
     0.000000    3.866000    0.000000
     0.000000    0.000000    3.866000
   Pd   Ir   Pt   Cu
     1     1     1     1
Direct
  0.000000  0.000000  0.000000
  0.500000  0.500000  0.000000
  0.500000  0.000000  0.500000
  0.000000  0.500000  0.500000
 
   32   32   32
 0.35957554684E+03 0.34309038935E+03 0.30080547872E+03 0.24774910526E+03 0.19500367748E+03
 0.14559494605E+03 0.10016311095E+03 0.62510190550E+02 0.37355658447E+02 0.24321333650E+02
 0.17393372151E+02 0.13243463962E+02 0.10998300412E+02 0.99520764983E+01 0.93872562332E+01
 0.89093274926E+01 0.86832130165E+01 0.89093274926E+01 0.93872562332E+01 0.99520764983E+01
 0.10998300412E+02 0.13243463962E+02 0.17393372151E+02 0.24321333650E+02 0.37355658447E+02
 0.62510190550E+02 0.10016311095E+03 0.14559494605E+03 0.19500367748E+03 0.24774910526E+03
 0.30080547872E+03 0.34309038935E+03 0.34321932191E+03 0.32757550349E+03 0.28736743142E+03
 0.23672400686E+03 0.18617763957E+03 0.13881052510E+03 0.95469659330E+02 0.59823789380E+02
 0.36183712369E+02 0.23924329962E+02 0.17270862448E+02 0.13285815462E+02 0.11127910510E+02
 0.10116664083E+02 0.95685176162E+01 0.91090441733E+01 0.88929875219E+01 0.91090441733E+01
 0.95685176162E+01 0.10116664083E+02 0.11127910510E+02 0.13285815462E+02 0.17270862448E+02
 0.23924329962E+02 0.36183712369E+02 0.59823789380E+02 0.95469659330E+02 0.13881052510E+03
 0.18617763957E+03 0.23672400686E+03 0.28736743142E+03 0.32757550349E+03 0.30065005533E+03
 0.28712368091E+03 0.25215288734E+03 0.20763861520E+03 0.16278142222E+03 0.12083014362E+03
 0.83101952735E+02 0.52817507753E+02 0.33161389036E+02 0.22874733599E+02 0.16957809777E+02
 0.13429304092E+02 0.11516358980E+02 0.10608519364E+02 0.10113617980E+02 0.97099674910E+01
 0.95232737796E+01 0.97099674910E+01 0.10113617980E+02 0.10608519364E+02 0.11516358980E+02
 0.13429304092E+02 0.16957809777E+02 0.22874733599E+02 0.33161389036E+02 0.52817507753E+02
 0.83101952735E+02 0.12083014362E+03 0.16278142222E+03 0.20763861520E+03 0.25215288734E+03
 0.28712368091E+03 0.24593948509E+03 0.23496711393E+03 0.20635824043E+03 0.16944076042E+03
 0.13192023882E+03 0.97244932871E+02 0.67124348030E+02 0.43968837641E+02 0.29418725615E+02
 0.21485198412E+02 0.16613112781E+02 0.13748157450E+02 0.12208247627E+02 0.11481037535E+02
 0.11094768447E+02 0.10792507768E+02 0.10654877346E+02 0.10792507768E+02 0.11094768447E+02
 0.11481037535E+02 0.12208247627E+02 0.13748157450E+02 0.16613112781E+02 0.21485198412E+02
 0.29418725615E+02 0.43968837641E+02 0.67124348030E+02 0.97244932871E+02 0.13192023882E+03
 0.16944076042E+03 0.20635824043E+03 0.23496711393E+03 0.19063476162E+03 0.18207641595E+03
 0.15958654064E+03 0.13026715998E+03 0.10049012969E+03 0.73715482384E+02 0.51676924812E+02
 0.35726283051E+02 0.25982926892E+02 0.20130617478E+02 0.16475951559E+02 0.14410040020E+02
 0.13368043606E+02 0.12940317803E+02 0.12766924178E+02 0.12639263629E+02 0.12577209845E+02
 0.12639263629E+02 0.12766924178E+02 0.12940317803E+02 0.13368043606E+02 0.14410040020E+02
 0.16475951559E+02 0.20130617478E+02 0.25982926892E+02 0.35726283051E+02 0.51676924812E+02
 0.73715482384E+02 0.10049012969E+03 0.13026715998E+03 0.15958654064E+03 0.18207641595E+03
 0.13959067302E+03 0.13324029382E+03 0.11649242084E+03 0.94632034780E+02 0.72732337053E+02
 0.53840762997E+02 0.39295106162E+02 0.29419027160E+02 0.23247523749E+02 0.19180742804E+02
 0.16821198565E+02 0.15673101944E+02 0.15297186561E+02 0.15365968339E+02 0.15586813473E+02
 0.15754845520E+02 0.15809510688E+02 0.15754845520E+02 0.15586813473E+02 0.15365968339E+02
 0.15297186561E+02 0.15673101944E+02 0.16821198565E+02 0.19180742804E+02 0.23247523749E+02
 0.29419027160E+02 0.39295106162E+02 0.53840762997E+02 0.72732337053E+02 0.94632034780E+02
 0.11649242084E+03 0.13324029382E+03 0.94722705502E+02 0.90472425187E+02 0.79285015741E+02
 0.64809125256E+02 0.50660358126E+02 0.39035220560E+02 0.30642554173E+02 0.25075190309E+02
 0.21245846154E+02 0.18928578529E+02 0.17920217697E+02 0.17846265244E+02 0.18374368137E+02
 0.19217870814E+02 0.20105088858E+02 0.20773023280E+02 0.21019913402E+02 0.20773023280E+02
 0.20105088858E+02 0.19217870814E+02 0.18374368137E+02 0.17846265244E+02 0.17920217697E+02
 0.18928578529E+02 0.21245846154E+02 0.25075190309E+02 0.30642554173E+02 0.39035220560E+02
 0.50660358126E+02 0.64809125256E+02 0.79285015741E+02 0.90472425187E+02 0.59157578682E+02
 0.56778277308E+02 0.50558093528E+02 0.42641409254E+02 0.35136764613E+02 0.29226771182E+02
 0.25027627189E+02 0.22015020568E+02 0.20188338183E+02 0.19577139758E+02 0.19999633945E+02
 0.21198452982E+02 0.23018242629E+02 0.25268625039E+02 0.27530955395E+02 0.29231910170E+02
 0.29866087804E+02 0.29231910170E+02 0.27530955395E+02 0.25268625039E+02 0.23018242629E+02
 0.21198452982E+02 0.19999633945E+02 0.19577139758E+02 0.20188338183E+02 0.22015020568E+02
 0.25027627189E+02 0.29226771182E+02 0.35136764613E+02 0.42641409254E+02 0.50558093528E+02
 0.56778277308E+02 0.35845938876E+02 0.34815941704E+02 0.32144889406E+02 0.28794454090E+02
 0.25652540145E+02 0.23087614641E+02 0.21173287569E+02 0.20155146091E+02 0.20173645229E+02
 0.21217231859E+02 0.23199920402E+02 0.26206781292E+02 0.30198743634E+02 0.34801985078E+02
 0.39248934911E+02 0.42523848145E+02 0.43734582446E+02 0.42523848145E+02 0.39248934911E+02
 0.34801985078E+02 0.30198743634E+02 0.26206781292E+02 0.23199920402E+02 0.21217231859E+02
 0.20173645229E+02 0.20155146091E+02 0.21173287569E+02 0.23087614641E+02 0.25652540145E+02
 0.28794454090E+02 0.32144889406E+02 0.34815941704E+02 0.23514212444E+02 0.23168338613E+02
 0.22249511059E+02 0.21023127138E+02 0.19818380368E+02 0.18977589533E+02 0.18791102085E+02
 0.19475884757E+02 0.21148010093E+02 0.23862770133E+02 0.27906782915E+02 0.33417400199E+02
 0.40195127707E+02 0.47607457798E+02 0.54532379590E+02 0.59538477809E+02 0.61374526872E+02
 0.59538477809E+02 0.54532379590E+02 0.47607457798E+02 0.40195127707E+02 0.33417400199E+02
 0.27906782915E+02 0.23862770133E+02 0.21148010093E+02 0.19475884757E+02 0.18791102085E+02
 0.18977589533E+02 0.19818380368E+02 0.21023127138E+02 0.22249511059E+02 0.23168338613E+02
 0.16693333541E+02 0.16599124734E+02 0.16361802522E+02 0.16117432409E+02 0.16079919070E+02
 0.16506353570E+02 0.17659832159E+02 0.19766836995E+02 0.22979626166E+02 0.27717353982E+02
 0.34273587831E+02 0.42513243355E+02 0.51963765505E+02 0.61800070739E+02 0.70733807997E+02
 0.77110660179E+02 0.79439645924E+02 0.77110660179E+02 0.70733807997E+02 0.61800070739E+02
 0.51963765505E+02 0.42513243355E+02 0.34273587831E+02 0.27717353982E+02 0.22979626166E+02
 0.19766836995E+02 0.17659832159E+02 0.16506353570E+02 0.16079919070E+02 0.16117432409E+02
 0.16361802522E+02 0.16599124734E+02 0.12496608939E+02 0.12556723298E+02 0.12749604897E+02
 0.13138445921E+02 0.13875346671E+02 0.15201661695E+02 0.17409600525E+02 0.20755399987E+02
 0.25687271140E+02 0.32795629994E+02 0.41993736964E+02 0.52662688354E+02 0.64050294115E+02
 0.75361262641E+02 0.85446297416E+02 0.92638466541E+02 0.95274117749E+02 0.92638466541E+02
 0.85446297416E+02 0.75361262641E+02 0.64050294115E+02 0.52662688354E+02 0.41993736964E+02
 0.32795629994E+02 0.25687271140E+02 0.20755399987E+02 0.17409600525E+02 0.15201661695E+02
 0.13875346671E+02 0.13138445921E+02 0.12749604897E+02 0.12556723298E+02 0.10135764035E+02
 0.10278481128E+02 0.10704751983E+02 0.11452800920E+02 0.12673139273E+02 0.14645116898E+02
 0.17719141705E+02 0.22273396174E+02 0.29184651786E+02 0.38847573080E+02 0.50574801857E+02
 0.63163322237E+02 0.75714930432E+02 0.87764414904E+02 0.98542994884E+02 0.10638424643E+03
 0.10930142733E+03 0.10638424643E+03 0.98542994884E+02 0.87764414904E+02 0.75714930432E+02
 0.63163322237E+02 0.50574801857E+02 0.38847573080E+02 0.29184651786E+02 0.22273396174E+02
 0.17719141705E+02 0.14645116898E+02 0.12673139273E+02 0.11452800920E+02 0.10704751983E+02
 0.10278481128E+02 0.89506851146E+01 0.91267783773E+01 0.96523983086E+01 0.10575167186E+02
 0.12084192521E+02 0.14527779973E+02 0.18323443986E+02 0.24142448521E+02 0.33139750630E+02
 0.45343807614E+02 0.59383859817E+02 0.73532267453E+02 0.86966410703E+02 0.99789472451E+02
 0.11164734206E+03 0.12062132872E+03 0.12403821335E+03 0.12062132872E+03 0.11164734206E+03
 0.99789472451E+02 0.86966410703E+02 0.73532267453E+02 0.59383859817E+02 0.45343807614E+02
 0.33139750630E+02 0.24142448521E+02 0.18323443986E+02 0.14527779973E+02 0.12084192521E+02
 0.10575167186E+02 0.96523983086E+01 0.91267783773E+01 0.82666905714E+01 0.84587854283E+01
 0.90356474197E+01 0.10062743985E+02 0.11773724892E+02 0.14584404262E+02 0.18986278544E+02
 0.26012237767E+02 0.36925533276E+02 0.51382250688E+02 0.67412860547E+02 0.82939357227E+02
 0.97397491137E+02 0.11151875190E+03 0.12521380419E+03 0.13599384380E+03 0.14017946386E+03
 0.13599384380E+03 0.12521380419E+03 0.11151875190E+03 0.97397491137E+02 0.82939357227E+02
 0.67412860547E+02 0.51382250688E+02 0.36925533276E+02 0.26012237767E+02 0.18986278544E+02
 0.14584404262E+02 0.11773724892E+02 0.10062743985E+02 0.90356474197E+01 0.84587854283E+01
 0.77195710807E+01 0.79292812030E+01 0.85593523529E+01 0.96826217560E+01 0.11557360451E+02
 0.14640570443E+02 0.19490991743E+02 0.27414625960E+02 0.39707099091E+02 0.55757929818E+02
 0.73206071274E+02 0.89807037849E+02 0.10527750148E+03 0.12082888940E+03 0.13646081240E+03
 0.14905984104E+03 0.15400277378E+03 0.14905984104E+03 0.13646081240E+03 0.12082888940E+03
 0.10527750148E+03 0.89807037849E+02 0.73206071274E+02 0.55757929818E+02 0.39707099091E+02
 0.27414625960E+02 0.19490991743E+02 0.14640570443E+02 0.11557360451E+02 0.96826217560E+01
 0.85593523529E+01 0.79292812030E+01 0.74731367580E+01 0.76924204129E+01 0.83503784934E+01
 0.95199991238E+01 0.11465389004E+02 0.14655879233E+02 0.19677907509E+02 0.27937107359E+02
 0.40735621104E+02 0.57367736536E+02 0.75338897384E+02 0.92361410982E+02 0.10827228281E+03
 0.12446112248E+03 0.14093677167E+03 0.15431267981E+03 0.15957599985E+03 0.15431267981E+03
 0.14093677167E+03 0.12446112248E+03 0.10827228281E+03 0.92361410982E+02 0.75338897384E+02
 0.57367736536E+02 0.40735621104E+02 0.27937107359E+02 0.19677907509E+02 0.14655879233E+02
 0.11465389004E+02 0.95199991238E+01 0.83503784934E+01 0.76924204129E+01 0.77195710807E+01
 0.79292812030E+01 0.85593523529E+01 0.96826217560E+01 0.11557360451E+02 0.14640570443E+02
 0.19490991743E+02 0.27414625960E+02 0.39707099091E+02 0.55757929818E+02 0.73206071274E+02
 0.89807037849E+02 0.10527750148E+03 0.12082888940E+03 0.13646081240E+03 0.14905984104E+03
 0.15400277378E+03 0.14905984104E+03 0.13646081240E+03 0.12082888940E+03 0.10527750148E+03
 0.89807037849E+02 0.73206071274E+02 0.55757929818E+02 0.39707099091E+02 0.27414625960E+02
 0.19490991743E+02 0.14640570443E+02 0.11557360451E+02 0.96826217560E+01 0.85593523529E+01
 0.79292812030E+01 0.82666905714E+01 0.84587854283E+01 0.90356474197E+01 0.10062743985E+02
 0.11773724892E+02 0.14584404262E+02 0.18986278544E+02 0.26012237767E+02 0.36925533276E+02
 0.51382250688E+02 0.67412860547E+02 0.82939357227E+02 0.97397491137E+02 0.11151875190E+03
 0.12521380419E+03 0.13599384380E+03 0.14017946386E+03 0.13599384380E+03 0.12521380419E+03
 0.11151875190E+03 0.97397491137E+02 0.82939357227E+02 0.67412860547E+02 0.51382250688E+02
 0.36925533276E+02 0.26012237767E+02 0.18986278544E+02 0.14584404262E+02 0.11773724892E+02
 0.10062743985E+02 0.90356474197E+01 0.84587854283E+01 0.89506851146E+01 0.91267783773E+01
 0.96523983086E+01 0.10575167186E+02 0.12084192521E+02 0.14527779973E+02 0.18323443986E+02
 0.24142448521E+02 0.33139750630E+02 0.45343807614E+02 0.59383859817E+02 0.73532267453E+02
 0.86966410703E+02 0.99789472451E+02 0.11164734206E+03 0.12062132872E+03 0.12403821335E+03
 0.12062132872E+03 0.11164734206E+03 0.99789472451E+02 0.86966410703E+02 0.73532267453E+02
 0.59383859817E+02 0.45343807614E+02 0.33139750630E+02 0.24142448521E+02 0.18323443986E+02
 0.14527779973E+02 0.12084192521E+02 0.10575167186E+02 0.96523983086E+01 0.91267783773E+01
 0.10135764035E+02 0.10278481128E+02 0.10704751983E+02 0.11452800920E+02 0.12673139273E+02
 0.14645116898E+02 0.17719141705E+02 0.22273396174E+02 0.29184651786E+02 0.38847573080E+02
 0.50574801857E+02 0.63163322237E+02 0.75714930432E+02 0.87764414904E+02 0.98542994884E+02
 0.10638424643E+03 0.10930142733E+03 0.10638424643E+03 0.98542994884E+02 0.87764414904E+02
 0.75714930432E+02 0.63163322237E+02 0.50574801857E+02 0.38847573080E+02 0.29184651786E+02
 0.22273396174E+02 0.17719141705E+02 0.14645116898E+02 0.12673139273E+02 0.11452800920E+02
 0.10704751983E+02 0.10278481128E+02 0.12496608939E+02 0.12556723298E+02 0.12749604897E+02
 0.13138445921E+02 0.13875346671E+02 0.15201661695E+02 0.17409600525E+02 0.20755399987E+02
 0.25687271140E+02 0.32795629994E+02 0.41993736964E+02 0.52662688354E+02 0.64050294115E+02
 0.75361262641E+02 0.85446297416E+02 0.92638466541E+02 0.95274117749E+02 0.92638466541E+02
 0.85446297416E+02 0.75361262641E+02 0.64050294115E+02 0.52662688354E+02 0.41993736964E+02
 0.32795629994E+02 0.25687271140E+02 0.20755399987E+02 0.17409600525E+02 0.15201661695E+02
 0.13875346671E+02 0.13138445921E+02 0.12749604897E+02 0.12556723298E+02 0.16693333541E+02
 0.16599124734E+02 0.16361802522E+02 0.16117432409E+02 0.16079919070E+02 0.16506353570E+02
 0.17659832159E+02 0.19766836995E+02 0.22979626166E+02 0.27717353982E+02 0.34273587831E+02
 0.42513243355E+02 0.51963765505E+02 0.61800070739E+02 0.70733807997E+02 0.77110660179E+02
 0.79439645924E+02 0.77110660179E+02 0.70733807997E+02 0.61800070739E+02 0.51963765505E+02
 0.42513243355E+02 0.34273587831E+02 0.27717353982E+02 0.22979626166E+02 0.19766836995E+02
 0.17659832159E+02 0.16506353570E+02 0.16079919070E+02 0.16117432409E+02 0.16361802522E+02
 0.16599124734E+02 0.23514212444E+02 0.23168338613E+02 0.22249511059E+02 0.21023127138E+02
 0.19818380368E+02 0.18977589533E+02 0.18791102085E+02 0.19475884757E+02 0.21148010093E+02
 0.23862770133E+02 0.27906782915E+02 0.33417400199E+02 0.40195127707E+02 0.47607457798E+02
 0.54532379590E+02 0.59538477809E+02 0.61374526872E+02 0.59538477809E+02 0.54532379590E+02
 0.47607457798E+02 0.40195127707E+02 0.33417400199E+02 0.27906782915E+02 0.23862770133E+02
 0.21148010093E+02 0.19475884757E+02 0.18791102085E+02 0.18977589533E+02 0.19818380368E+02
 0.21023127138E+02 0.22249511059E+02 0.23168338613E+02 0.35845938876E+02 0.34815941704E+02
 0.32144889406E+02 0.28794454090E+02 0.25652540145E+02 0.23087614641E+02 0.21173287569E+02
 0.20155146091E+02 0.20173645229E+02 0.21217231859E+02 0.23199920402E+02 0.26206781292E+02
 0.30198743634E+02 0.34801985078E+02 0.39248934911E+02 0.42523848145E+02 0.43734582446E+02
 0.42523848145E+02 0.39248934911E+02 0.34801985078E+02 0.30198743634E+02 0.26206781292E+02
 0.23199920402E+02 0.21217231859E+02 0.20173645229E+02 0.20155146091E+02 0.21173287569E+02
 0.23087614641E+02 0.25652540145E+02 0.28794454090E+02 0.32144889406E+02 0.34815941704E+02
 0.59157578682E+02 0.56778277308E+02 0.50558093528E+02 0.42641409254E+02 0.35136764613E+02
 0.29226771182E+02 0.25027627189E+02 0.22015020568E+02 0.20188338183E+02 0.19577139758E+02
 0.19999633945E+02 0.21198452982E+02 0.23018242629E+02 0.25268625039E+02 0.27530955395E+02
 0.29231910170E+02 0.29866087804E+02 0.29231910170E+02 0.27530955395E+02 0.25268625039E+02
 0.23018242629E+02 0.21198452982E+02 0.19999633945E+02 0.19577139758E+02 0.20188338183E+02
 0.22015020568E+02 0.25027627189E+02 0.29226771182E+02 0.35136764613E+02 0.42641409254E+02
 0.50558093528E+02 0.56778277308E+02 0.94722705502E+02 0.90472425187E+02 0.79285015741E+02
 0.64809125256E+02 0.50660358126E+02 0.39035220560E+02 0.30642554173E+02 0.25075190309E+02
 0.21245846154E+02 0.18928578529E+02 0.17920217697E+02 0.17846265244E+02 0.18374368137E+02
 0.19217870814E+02 0.20105088858E+02 0.20773023280E+02 0.21019913402E+02 0.20773023280E+02
 0.20105088858E+02 0.19217870814E+02 0.18374368137E+02 0.17846265244E+02 0.17920217697E+02
 0.18928578529E+02 0.21245846154E+02 0.25075190309E+02 0.30642554173E+02 0.39035220560E+02
 0.50660358126E+02 0.64809125256E+02 0.79285015741E+02 0.90472425187E+02 0.13959067302E+03
 0.13324029382E+03 0.11649242084E+03 0.94632034780E+02 0.72732337053E+02 0.53840762997E+02
 0.39295106162E+02 0.29419027160E+02 0.23247523749E+02 0.19180742804E+02 0.16821198565E+02
 0.15673101944E+02 0.15297186561E+02 0.15365968339E+02 0.15586813473E+02 0.15754845520E+02
 0.15809510688E+02 0.15754845520E+02 0.15586813473E+02 0.15365968339E+02 0.15297186561E+02
 0.15673101944E+02 0.16821198565E+02 0.19180742804E+02 0.23247523749E+02 0.29419027160E+02
 0.39295106162E+02 0.53840762997E+02 0.72732337053E+02 0.94632034780E+02 0.11649242084E+03
 0.13324029382E+03 0.19063476162E+03 0.18207641595E+03 0.15958654064E+03 0.13026715998E+03
 0.10049012969E+03 0.73715482384E+02 0.51676924812E+02 0.35726283051E+02 0.25982926892E+02
 0.20130617478E+02 0.16475951559E+02 0.14410040020E+02 0.13368043606E+02 0.12940317803E+02
 0.12766924178E+02 0.12639263629E+02 0.12577209845E+02 0.12639263629E+02 0.12766924178E+02
 0.12940317803E+02 0.13368043606E+02 0.14410040020E+02 0.16475951559E+02 0.20130617478E+02
 0.25982926892E+02 0.35726283051E+02 0.51676924812E+02 0.73715482384E+02 0.10049012969E+03
 0.13026715998E+03 0.15958654064E+03 0.18207641595E+03 0.24593948509E+03 0.23496711393E+03
 0.20635824043E+03 0.16944076042E+03 0.13192023882E+03 0.97244932871E+02 0.67124348030E+02
 0.43968837641E+02 0.29418725615E+02 0.21485198412E+02 0.16613112781E+02 0.13748157450E+02
 0.12208247627E+02 0.11481037535E+02 0.11094768447E+02 0.10792507768E+02 0.10654877346E+02
 0.10792507768E+02 0.11094768447E+02 0.11481037535E+02 0.12208247627E+02 0.13748157450E+02
 0.16613112781E+02 0.21485198412E+02 0.29418725615E+02 0.43968837641E+02 0.67124348030E+02
 0.97244932871E+02 0.13192023882E+03 0.16944076042E+03 0.20635824043E+03 0.23496711393E+03
 0.30065005533E+03 0.28712368091E+03 0.25215288734E+03 0.20763861520E+03 0.16278142222E+03
 0.12083014362E+03 0.83101952735E+02 0.52817507753E+02 0.33161389036E+02 0.22874733599E+02
 0.16957809777E+02 0.13429304092E+02 0.11516358980E+02 0.10608519364E+02 0.10113617980E+02
 0.97099674910E+01 0.95232737796E+01 0.97099674910E+01 0.10113617980E+02 0.10608519364E+02
 0.11516358980E+02 0.13429304092E+02 0.16957809777E+02 0.22874733599E+02 0.33161389036E+02
 0.52817507753E+02 0.83101952735E+02 0.12083014362E+03 0.16278142222E+03 0.20763861520E+03
 0.25215288734E+03 0.28712368091E+03 0.34321932191E+03 0.32757550349E+03 0.28736743142E+03
 0.23672400686E+03 0.18617763957E+03 0.13881052510E+03 0.95469659330E+02 0.59823789380E+02
 0.36183712369E+02 0.23924329962E+02 0.17270862448E+02 0.13285815462E+02 0.11127910510E+02
 0.10116664083E+02 0.95685176162E+01 0.91090441733E+01 0.88929875219E+01 0.91090441733E+01
 0.95685176162E+01 0.10116664083E+02 0.11127910510E+02 0.13285815462E+02 0.17270862448E+02
 0.23924329962E+02 0.36183712369E+02 0.59823789380E+02 0.95469659330E+02 0.13881052510E+03
 0.18617763957E+03 0.23672400686E+03 0.28736743142E+03 0.32757550349E+03 0.34348549846E+03
 0.32790382191E+03 0.28783003912E+03 0.23728087015E+03 0.18670797346E+03 0.13920115523E+03
 0.95683219912E+02 0.59900184585E+02 0.36191774310E+02 0.23914284530E+02 0.17261934946E+02
 0.13284671876E+02 0.11137247971E+02 0.10136791302E+02 0.95982043853E+01 0.91455556065E+01
 0.89320179300E+01 0.91455556065E+01 0.95982043853E+01 0.10136791302E+02 0.11137247971E+02
 0.13284671876E+02 0.17261934946E+02 0.23914284530E+02 0.36191774310E+02 0.59900184585E+02
 0.95683219912E+02 0.13920115523E+03 0.18670797346E+03 0.23728087015E+03 0.28783003912E+03
 0.32790382191E+03 0.32841627301E+03 0.31358879710E+03 0.27537720050E+03 0.22699814422E+03
 0.17842613854E+03 0.13281577956E+03 0.91268816047E+02 0.57381883913E+02 0.35095993110E+02
 0.23535562065E+02 0.17143538507E+02 0.13325279184E+02 0.11262064179E+02 0.10295643357E+02
 0.97734509566E+01 0.93386821244E+01 0.91348179164E+01 0.93386821244E+01 0.97734509566E+01
 0.10295643357E+02 0.11262064179E+02 0.13325279184E+02 0.17143538507E+02 0.23535562065E+02
 0.35095993110E+02 0.57381883913E+02 0.91268816047E+02 0.13281577956E+03 0.17842613854E+03
 0.22699814422E+03 0.27537720050E+03 0.31358879710E+03 0.28897261942E+03 0.27605360359E+03
 0.24256710403E+03 0.19974322661E+03 0.15639554739E+03 0.11585559775E+03 0.79622308531E+02
 0.50809614092E+02 0.32266600133E+02 0.22527631007E+02 0.16840892633E+02 0.13462899290E+02
 0.11636092476E+02 0.10770269150E+02 0.10300292866E+02 0.99195424311E+01 0.97438963133E+01
 0.99195424311E+01 0.10300292866E+02 0.10770269150E+02 0.11636092476E+02 0.13462899290E+02
 0.16840892633E+02 0.22527631007E+02 0.32266600133E+02 0.50809614092E+02 0.79622308531E+02
 0.11585559775E+03 0.15639554739E+03 0.19974322661E+03 0.24256710403E+03 0.27605360359E+03
 0.23766533288E+03 0.22708121256E+03 0.19942603548E+03 0.16361711564E+03 0.12714170468E+03
 0.93516712930E+02 0.64542180682E+02 0.42497354141E+02 0.28750859405E+02 0.21183496787E+02
 0.16507083542E+02 0.13768873853E+02 0.12302166442E+02 0.11611981700E+02 0.11248140341E+02
 0.10965447774E+02 0.10836960437E+02 0.10965447774E+02 0.11248140341E+02 0.11611981700E+02
 0.12302166442E+02 0.13768873853E+02 0.16507083542E+02 0.21183496787E+02 0.28750859405E+02
 0.42497354141E+02 0.64542180682E+02 0.93516712930E+02 0.12714170468E+03 0.16361711564E+03
 0.19942603548E+03 0.22708121256E+03 0.18490775839E+03 0.17659004374E+03 0.15470421986E+03
 0.12612442346E+03 0.97100748220E+02 0.71117696846E+02 0.49920704323E+02 0.34735607596E+02
 0.25495713455E+02 0.19872304590E+02 0.16372335485E+02 0.14404477003E+02 0.13418641268E+02
 0.13019393116E+02 0.12862858883E+02 0.12749153522E+02 0.12693466593E+02 0.12749153522E+02
 0.12862858883E+02 0.13019393116E+02 0.13418641268E+02 0.14404477003E+02 0.16372335485E+02
 0.19872304590E+02 0.25495713455E+02 0.34735607596E+02 0.49920704323E+02 0.71117696846E+02
 0.97100748220E+02 0.12612442346E+03 0.15470421986E+03 0.17659004374E+03 0.13546312351E+03
 0.12928240790E+03 0.11297501050E+03 0.91686733846E+02 0.70395676608E+02 0.52122361728E+02
 0.38169988006E+02 0.28767618564E+02 0.22856326475E+02 0.18951097338E+02 0.16701454299E+02
 0.15618608975E+02 0.15276402497E+02 0.15358897491E+02 0.15585403788E+02 0.15758119215E+02
 0.15815165038E+02 0.15758119215E+02 0.15585403788E+02 0.15358897491E+02 0.15276402497E+02
 0.15618608975E+02 0.16701454299E+02 0.18951097338E+02 0.22856326475E+02 0.28767618564E+02
 0.38169988006E+02 0.52122361728E+02 0.70395676608E+02 0.91686733846E+02 0.11297501050E+03
 0.12928240790E+03 0.91762385685E+02 0.87644314169E+02 0.76806864499E+02 0.62795447242E+02
 0.49133059575E+02 0.37959502940E+02 0.29937121326E+02 0.24604029168E+02 0.20914521484E+02
 0.18703060284E+02 0.17757153708E+02 0.17711074172E+02 0.18243436724E+02 0.19076690604E+02
 0.19943614849E+02 0.20593259773E+02 0.20833088791E+02 0.20593259773E+02 0.19943614849E+02
 0.19076690604E+02 0.18243436724E+02 0.17711074172E+02 0.17757153708E+02 0.18703060284E+02
 0.20914521484E+02 0.24604029168E+02 0.29937121326E+02 0.37959502940E+02 0.49133059575E+02
 0.62795447242E+02 0.76806864499E+02 0.87644314169E+02 0.57282076744E+02 0.54995520369E+02
 0.49020530182E+02 0.41424169666E+02 0.34236249071E+02 0.28583584717E+02 0.24546157041E+02
 0.21634128682E+02 0.19889485034E+02 0.19326245022E+02 0.19762568455E+02 0.20945580517E+02
 0.22710307246E+02 0.24875749935E+02 0.27045137535E+02 0.28673669584E+02 0.29280486551E+02
 0.28673669584E+02 0.27045137535E+02 0.24875749935E+02 0.22710307246E+02 0.20945580517E+02
 0.19762568455E+02 0.19326245022E+02 0.19889485034E+02 0.21634128682E+02 0.24546157041E+02
 0.28583584717E+02 0.34236249071E+02 0.41424169666E+02 0.49020530182E+02 0.54995520369E+02
 0.34888377183E+02 0.33906430647E+02 0.31359576081E+02 0.28161690890E+02 0.25149875424E+02
 0.22661538821E+02 0.20808288077E+02 0.19836971560E+02 0.19877233258E+02 0.20914443614E+02
 0.22852364471E+02 0.25757765772E+02 0.29595253701E+02 0.34006756617E+02 0.38259511971E+02
 0.41387147788E+02 0.42542657893E+02 0.41387147788E+02 0.38259511971E+02 0.34006756617E+02
 0.29595253701E+02 0.25757765772E+02 0.22852364471E+02 0.20914443614E+02 0.19877233258E+02
 0.19836971560E+02 0.20808288077E+02 0.22661538821E+02 0.25149875424E+02 0.28161690890E+02
 0.31359576081E+02 0.33906430647E+02 0.23086642491E+02 0.22752672862E+02 0.21860753666E+02
 0.20664734340E+02 0.19494006530E+02 0.18682227415E+02 0.18510438614E+02 0.19188418728E+02
 0.20830198180E+02 0.23477076418E+02 0.27392276802E+02 0.32711871788E+02 0.39236899566E+02
 0.46350546560E+02 0.52976363285E+02 0.57755199771E+02 0.59505750991E+02 0.57755199771E+02
 0.52976363285E+02 0.46350546560E+02 0.39236899566E+02 0.32711871788E+02 0.27392276802E+02
 0.23477076418E+02 0.20830198180E+02 0.19188418728E+02 0.18510438614E+02 0.18682227415E+02
 0.19494006530E+02 0.20664734340E+02 0.21860753666E+02 0.22752672862E+02 0.16474682736E+02
 0.16382859825E+02 0.16152112829E+02 0.15915936389E+02 0.15882655805E+02 0.16301547990E+02
 0.17428155066E+02 0.19485411868E+02 0.22617600256E+02 0.27214773948E+02 0.33576781036E+02
 0.41568615636E+02 0.50707789939E+02 0.60172209231E+02 0.68721147487E+02 0.74796823408E+02
 0.77010640967E+02 0.74796823408E+02 0.68721147487E+02 0.60172209231E+02 0.50707789939E+02
 0.41568615636E+02 0.33576781036E+02 0.27214773948E+02 0.22617600256E+02 0.19485411868E+02
 0.17428155066E+02 0.16301547990E+02 0.15882655805E+02 0.15915936389E+02 0.16152112829E+02
 0.16382859825E+02 0.12434095171E+02 0.12491149660E+02 0.12675387421E+02 0.13050032621E+02
 0.13764154958E+02 0.15052804285E+02 0.17201795001E+02 0.20464811544E+02 0.25255871130E+02
 0.32171922064E+02 0.41151256898E+02 0.51573034165E+02 0.62648628527E+02 0.73552985020E+02
 0.83177915040E+02 0.89987607068E+02 0.92472732115E+02 0.89987607068E+02 0.83177915040E+02
 0.73552985020E+02 0.62648628527E+02 0.51573034165E+02 0.41151256898E+02 0.32171922064E+02
 0.25255871130E+02 0.20464811544E+02 0.17201795001E+02 0.15052804285E+02 0.13764154958E+02
 0.13050032621E+02 0.12675387421E+02 0.12491149660E+02 0.10184270311E+02 0.10319377165E+02
 0.10724485071E+02 0.11440442470E+02 0.12617116113E+02 0.14528762203E+02 0.17520791677E+02
 0.21954047123E+02 0.28674690594E+02 0.38121515695E+02 0.49650776898E+02 0.62044805672E+02
 0.74319766621E+02 0.85927545150E+02 0.96134420711E+02 0.10346601672E+03 0.10617668662E+03
 0.10346601672E+03 0.96134420711E+02 0.85927545150E+02 0.74319766621E+02 0.62044805672E+02
 0.49650776898E+02 0.38121515695E+02 0.28674690594E+02 0.21954047123E+02 0.17520791677E+02
 0.14528762203E+02 0.12617116113E+02 0.11440442470E+02 0.10724485071E+02 0.10319377165E+02
 0.90765402570E+01 0.92415366760E+01 0.97364767400E+01 0.10613733934E+02 0.12063634578E+02
 0.14430320882E+02 0.18127525903E+02 0.23783596120E+02 0.32554036493E+02 0.44541268195E+02
 0.58432526196E+02 0.72457973041E+02 0.85639684043E+02 0.97933325482E+02 0.10902579952E+03
 0.11728672091E+03 0.12040999755E+03 0.11728672091E+03 0.10902579952E+03 0.97933325482E+02
 0.85639684043E+02 0.72457973041E+02 0.58432526196E+02 0.44541268195E+02 0.32554036493E+02
 0.23783596120E+02 0.18127525903E+02 0.14430320882E+02 0.12063634578E+02 0.10613733934E+02
 0.97364767400E+01 0.92415366760E+01 0.84570583878E+01 0.86349520651E+01 0.91726987815E+01
 0.10142524570E+02 0.11781134842E+02 0.14501302652E+02 0.18787178988E+02 0.25614430548E+02
 0.36275831545E+02 0.50525711712E+02 0.66458948836E+02 0.81917882566E+02 0.96107063385E+02
 0.10954926894E+03 0.12221684117E+03 0.13202675589E+03 0.13581133922E+03 0.13202675589E+03
 0.12221684117E+03 0.10954926894E+03 0.96107063385E+02 0.81917882566E+02 0.66458948836E+02
 0.50525711712E+02 0.36275831545E+02 0.25614430548E+02 0.18787178988E+02 0.14501302652E+02
 0.11781134842E+02 0.10142524570E+02 0.91726987815E+01 0.86349520651E+01 0.79663548522E+01
 0.81590599725E+01 0.87424036895E+01 0.97978679823E+01 0.11588663690E+02 0.14570102528E+02
 0.19288651154E+02 0.26988703976E+02 0.39013760872E+02 0.54867279977E+02 0.72252855082E+02
 0.88813062064E+02 0.10397373781E+03 0.11869443463E+03 0.13306067788E+03 0.14446486995E+03
 0.14891422016E+03 0.14446486995E+03 0.13306067788E+03 0.11869443463E+03 0.10397373781E+03
 0.88813062064E+02 0.72252855082E+02 0.54867279977E+02 0.39013760872E+02 0.26988703976E+02
 0.19288651154E+02 0.14570102528E+02 0.11588663690E+02 0.97978679823E+01 0.87424036895E+01
 0.81590599725E+01 0.77444694313E+01 0.79455144487E+01 0.85533953692E+01 0.96505879564E+01
 0.11507017811E+02 0.14590990176E+02 0.19474514559E+02 0.27500992155E+02 0.40026660381E+02
 0.56465047808E+02 0.74385410690E+02 0.91373729850E+02 0.10695349930E+03 0.12224698861E+03
 0.13735974595E+03 0.14945067189E+03 0.15418352933E+03 0.14945067189E+03 0.13735974595E+03
 0.12224698861E+03 0.10695349930E+03 0.91373729850E+02 0.74385410690E+02 0.56465047808E+02
 0.40026660381E+02 0.27500992155E+02 0.19474514559E+02 0.14590990176E+02 0.11507017811E+02
 0.96505879564E+01 0.85533953692E+01 0.79455144487E+01 0.79663548522E+01 0.81590599725E+01
 0.87424036895E+01 0.97978679823E+01 0.11588663690E+02 0.14570102528E+02 0.19288651154E+02
 0.26988703976E+02 0.39013760872E+02 0.54867279977E+02 0.72252855082E+02 0.88813062064E+02
 0.10397373781E+03 0.11869443463E+03 0.13306067788E+03 0.14446486995E+03 0.14891422016E+03
 0.14446486995E+03 0.13306067788E+03 0.11869443463E+03 0.10397373781E+03 0.88813062064E+02
 0.72252855082E+02 0.54867279977E+02 0.39013760872E+02 0.26988703976E+02 0.19288651154E+02
 0.14570102528E+02 0.11588663690E+02 0.97978679823E+01 0.87424036895E+01 0.81590599725E+01
 0.84570583878E+01 0.86349520651E+01 0.91726987815E+01 0.10142524570E+02 0.11781134842E+02
 0.14501302652E+02 0.18787178988E+02 0.25614430548E+02 0.36275831545E+02 0.50525711712E+02
 0.66458948836E+02 0.81917882566E+02 0.96107063385E+02 0.10954926894E+03 0.12221684117E+03
 0.13202675589E+03 0.13581133922E+03 0.13202675589E+03 0.12221684117E+03 0.10954926894E+03
 0.96107063385E+02 0.81917882566E+02 0.66458948836E+02 0.50525711712E+02 0.36275831545E+02