   4   4   0   0
  0.1444527E+02  0.3866000E-09  0.3866000E-09  0.3866000E-09  0.5000000E-15
  1.000000000000000E-004
  CAR 
 unknown system                          
     27.35973105     -1.90401448  301      9.22228694      1.00000000
     -1.904  0.0000E+00  0.0000E+00
     -1.806  0.0000E+00  0.0000E+00
     -1.709  0.0000E+00  0.0000E+00
     -1.611  0.0000E+00  0.0000E+00
     -1.514 -0.2717E-28 -0.2650E-29
     -1.416 -0.5168E-25 -0.5043E-26
     -1.319 -0.6083E-22 -0.5939E-23
     -1.221 -0.4428E-19 -0.4325E-20
     -1.124 -0.1991E-16 -0.1947E-17
     -1.026 -0.5353E-14 -0.5241E-15
     -0.929 -0.9096E-12 -0.8926E-13
     -0.831 -0.9484E-10 -0.9340E-11
     -0.733 -0.6042E-08 -0.5988E-09
     -0.636 -0.2338E-06 -0.2340E-07
     -0.538 -0.5437E-05 -0.5538E-06
     -0.441 -0.7459E-04 -0.7830E-05
     -0.343 -0.5809E-03 -0.6449E-04
     -0.246 -0.2320E-02 -0.2908E-03
     -0.148 -0.2836E-02 -0.5674E-03
     -0.051  0.1056E-01  0.4625E-03
      0.047  0.4391E-01  0.4746E-02
      0.144  0.6259E-01  0.1085E-01
      0.242  0.3249E-01  0.1402E-01
      0.340 -0.6240E-02  0.1341E-01
      0.437  0.4490E-01  0.1779E-01
      0.535  0.2293E+00  0.4015E-01
      0.632  0.3727E+00  0.7651E-01
      0.730  0.2651E+00  0.1024E+00
      0.827  0.6130E-01  0.1084E+00
      0.925  0.1296E+00  0.1210E+00
      1.022  0.5253E+00  0.1722E+00
      1.120  0.7602E+00  0.2464E+00
      1.217  0.4914E+00  0.2943E+00
      1.315  0.1785E+00  0.3117E+00
      1.413  0.2777E+00  0.3388E+00
      1.510  0.5046E+00  0.3880E+00
      1.608  0.4510E+00  0.4320E+00
      1.705  0.2223E+00  0.4537E+00
      1.803  0.7090E-01  0.4606E+00
      1.900  0.9129E-01  0.4695E+00
      1.998  0.2872E+00  0.4976E+00
      2.095  0.5164E+00  0.5479E+00
      2.193  0.6923E+00  0.6155E+00
      2.290  0.1056E+01  0.7185E+00
      2.388  0.1615E+01  0.8761E+00
      2.486  0.1841E+01  0.1056E+01
      2.583  0.1510E+01  0.1203E+01
      2.681  0.8196E+00  0.1283E+01
      2.778  0.3330E+00  0.1315E+01
      2.876  0.7710E+00  0.1391E+01
      2.973  0.1947E+01  0.1580E+01
      3.071  0.2797E+01  0.1853E+01
      3.168  0.2840E+01  0.2130E+01
      3.266  0.2474E+01  0.2372E+01
      3.363  0.1909E+01  0.2558E+01
      3.461  0.1898E+01  0.2743E+01
      3.559  0.3501E+01  0.3085E+01
      3.656  0.5395E+01  0.3611E+01
      3.754  0.5453E+01  0.4143E+01
      3.851  0.4816E+01  0.4612E+01
      3.949  0.5492E+01  0.5148E+01
      4.046  0.6773E+01  0.5809E+01
      4.144  0.7380E+01  0.6529E+01
      4.241  0.7154E+01  0.7227E+01
      4.339  0.6090E+01  0.7821E+01
      4.436  0.4857E+01  0.8294E+01
      4.534  0.4832E+01  0.8766E+01
      4.632  0.5842E+01  0.9336E+01
      4.729  0.6293E+01  0.9949E+01
      4.827  0.5687E+01  0.1050E+02
      4.924  0.4826E+01  0.1097E+02
      5.022  0.4432E+01  0.1141E+02
      5.119  0.4622E+01  0.1186E+02
      5.217  0.4730E+01  0.1232E+02
      5.314  0.4398E+01  0.1275E+02
      5.412  0.4519E+01  0.1319E+02
      5.509  0.5488E+01  0.1372E+02
      5.607  0.6480E+01  0.1436E+02
      5.705  0.6939E+01  0.1503E+02
      5.802  0.6759E+01  0.1569E+02
      5.900  0.6221E+01  0.1630E+02
      5.997  0.6594E+01  0.1694E+02
      6.095  0.7951E+01  0.1772E+02
      6.192  0.8404E+01  0.1854E+02
      6.290  0.8293E+01  0.1935E+02
      6.387  0.1005E+02  0.2033E+02
      6.485  0.1248E+02  0.2154E+02
      6.582  0.1197E+02  0.2271E+02
      6.680  0.8686E+01  0.2356E+02
      6.778  0.6289E+01  0.2417E+02
      6.875  0.6744E+01  0.2483E+02
      6.973  0.8439E+01  0.2565E+02
      7.070  0.9261E+01  0.2656E+02
      7.168  0.9329E+01  0.2747E+02
      7.265  0.9311E+01  0.2838E+02
      7.363  0.8529E+01  0.2921E+02
      7.460  0.6602E+01  0.2985E+02
      7.558  0.4981E+01  0.3034E+02
      7.655  0.4674E+01  0.3079E+02
      7.753  0.4937E+01  0.3127E+02
      7.851  0.4865E+01  0.3175E+02
      7.948  0.4520E+01  0.3219E+02
      8.046  0.4872E+01  0.3267E+02
      8.143  0.6397E+01  0.3329E+02
      8.241  0.7956E+01  0.3407E+02
      8.338  0.8268E+01  0.3487E+02
      8.436  0.7560E+01  0.3561E+02
      8.533  0.6502E+01  0.3624E+02
      8.631  0.5432E+01  0.3677E+02
      8.728  0.4541E+01  0.3722E+02
      8.826  0.4167E+01  0.3762E+02
      8.924  0.4862E+01  0.3810E+02
      9.021  0.6056E+01  0.3869E+02
      9.119  0.6626E+01  0.3933E+02
      9.216  0.6445E+01  0.3996E+02
      9.314  0.5730E+01  0.4052E+02
      9.411  0.4808E+01  0.4099E+02
      9.509  0.4059E+01  0.4139E+02
      9.606  0.3552E+01  0.4173E+02
      9.704  0.3549E+01  0.4208E+02
      9.801  0.3670E+01  0.4244E+02
      9.899  0.2808E+01  0.4271E+02
      9.997  0.1367E+01  0.4284E+02
     10.094  0.8013E+00  0.4292E+02
     10.192  0.1163E+01  0.4304E+02
     10.289  0.1334E+01  0.4317E+02
     10.387  0.9930E+00  0.4326E+02
     10.484  0.8160E+00  0.4334E+02
     10.582  0.9470E+00  0.4343E+02
     10.679  0.9470E+00  0.4353E+02
     10.777  0.9336E+00  0.4362E+02
     10.874  0.1212E+01  0.4374E+02
     10.972  0.1520E+01  0.4388E+02
     11.070  0.1653E+01  0.4405E+02
     11.167  0.1514E+01  0.4419E+02
     11.265  0.9516E+00  0.4429E+02
     11.362  0.4733E+00  0.4433E+02
     11.460  0.6008E+00  0.4439E+02
     11.557  0.9192E+00  0.4448E+02
     11.655  0.8533E+00  0.4456E+02
     11.752  0.6652E+00  0.4463E+02
     11.850  0.8106E+00  0.4471E+02
     11.947  0.1007E+01  0.4481E+02
     12.045  0.8746E+00  0.4489E+02
     12.143  0.6240E+00  0.4495E+02
     12.240  0.5009E+00  0.4500E+02
     12.338  0.3965E+00  0.4504E+02
     12.435  0.3684E+00  0.4508E+02
     12.533  0.6466E+00  0.4514E+02
     12.630  0.1198E+01  0.4526E+02
     12.728  0.1667E+01  0.4542E+02
     12.825  0.1684E+01  0.4558E+02
     12.923  0.1431E+01  0.4572E+02
     13.020  0.1255E+01  0.4584E+02
     13.118  0.1164E+01  0.4596E+02
     13.216  0.1012E+01  0.4606E+02
     13.313  0.7999E+00  0.4614E+02
     13.411  0.7657E+00  0.4621E+02
     13.508  0.8991E+00  0.4630E+02
     13.606  0.9189E+00  0.4639E+02
     13.703  0.1103E+01  0.4649E+02
     13.801  0.1824E+01  0.4667E+02
     13.898  0.2300E+01  0.4690E+02
     13.996  0.1897E+01  0.4708E+02
     14.093  0.1123E+01  0.4719E+02
     14.191  0.4247E+00  0.4723E+02
     14.289  0.4194E-01  0.4724E+02
     14.386  0.1483E+00  0.4725E+02
     14.484  0.5397E+00  0.4730E+02
     14.581  0.7097E+00  0.4737E+02
     14.679  0.4293E+00  0.4742E+02
     14.776  0.6856E-01  0.4742E+02
     14.874  0.5719E-01  0.4743E+02
     14.971  0.4572E+00  0.4747E+02
     15.069  0.1059E+01  0.4758E+02
     15.167  0.1503E+01  0.4772E+02
     15.264  0.1443E+01  0.4786E+02
     15.362  0.1140E+01  0.4797E+02
     15.459  0.1363E+01  0.4811E+02
     15.557  0.2025E+01  0.4830E+02
     15.654  0.2182E+01  0.4852E+02
     15.752  0.1829E+01  0.4870E+02
     15.849  0.1499E+01  0.4884E+02
     15.947  0.1069E+01  0.4895E+02
     16.044  0.8190E+00  0.4903E+02
     16.142  0.1324E+01  0.4916E+02
     16.240  0.1979E+01  0.4935E+02
     16.337  0.1668E+01  0.4951E+02
     16.435  0.6408E+00  0.4957E+02
     16.532 -0.4283E-01  0.4957E+02
     16.630 -0.1855E-01  0.4957E+02
     16.727  0.6569E+00  0.4963E+02
     16.825  0.1695E+01  0.4980E+02
     16.922  0.2264E+01  0.5002E+02
     17.020  0.1936E+01  0.5021E+02
     17.117  0.1163E+01  0.5032E+02
     17.215  0.4305E+00  0.5036E+02
     17.313  0.1184E+00  0.5037E+02
     17.410  0.4659E+00  0.5042E+02
     17.508  0.1098E+01  0.5053E+02
     17.605  0.1377E+01  0.5066E+02
     17.703  0.1322E+01  0.5079E+02
     17.800  0.1625E+01  0.5095E+02
     17.898  0.2586E+01  0.5120E+02
     17.995  0.3103E+01  0.5150E+02
     18.093  0.2238E+01  0.5172E+02
     18.190  0.9298E+00  0.5181E+02
     18.288  0.3847E+00  0.5185E+02
     18.386  0.5725E+00  0.5191E+02
     18.483  0.9874E+00  0.5200E+02
     18.581  0.1480E+01  0.5215E+02
     18.678  0.1805E+01  0.5232E+02
     18.776  0.1696E+01  0.5249E+02
     18.873  0.1508E+01  0.5263E+02
     18.971  0.1493E+01  0.5278E+02
     19.068  0.1240E+01  0.5290E+02
     19.166  0.6838E+00  0.5297E+02
     19.263  0.4541E+00  0.5301E+02
     19.361  0.8794E+00  0.5310E+02
     19.459  0.1445E+01  0.5324E+02
     19.556  0.1482E+01  0.5338E+02
     19.654  0.1114E+01  0.5349E+02
     19.751  0.1136E+01  0.5360E+02
     19.849  0.1796E+01  0.5378E+02
     19.946  0.2482E+01  0.5402E+02
     20.044  0.2760E+01  0.5429E+02
     20.141  0.2548E+01  0.5454E+02
     20.239  0.1938E+01  0.5473E+02
     20.336  0.1598E+01  0.5488E+02
     20.434  0.1862E+01  0.5506E+02
     20.532  0.1995E+01  0.5526E+02
     20.629  0.1550E+01  0.5541E+02
     20.727  0.8948E+00  0.5550E+02
     20.824  0.4559E+00  0.5554E+02
     20.922  0.6152E+00  0.5560E+02
     21.019  0.1436E+01  0.5574E+02
     21.117  0.2187E+01  0.5596E+02
     21.214  0.2154E+01  0.5617E+02
     21.312  0.1675E+01  0.5633E+02
     21.409  0.1666E+01  0.5649E+02
     21.507  0.2301E+01  0.5672E+02
     21.605  0.2768E+01  0.5699E+02
     21.702  0.2492E+01  0.5723E+02
     21.800  0.1873E+01  0.5741E+02
     21.897  0.1529E+01  0.5756E+02
     21.995  0.1507E+01  0.5771E+02
     22.092  0.1605E+01  0.5786E+02
     22.190  0.1728E+01  0.5803E+02
     22.287  0.1782E+01  0.5821E+02
     22.385  0.1739E+01  0.5838E+02
     22.482  0.1477E+01  0.5852E+02
     22.580  0.1047E+01  0.5862E+02
     22.678  0.8664E+00  0.5871E+02
     22.775  0.1054E+01  0.5881E+02
     22.873  0.1334E+01  0.5894E+02
     22.970  0.1390E+01  0.5908E+02
     23.068  0.1050E+01  0.5918E+02
     23.165  0.5451E+00  0.5923E+02
     23.263  0.3196E+00  0.5926E+02
     23.360  0.3925E+00  0.5930E+02
     23.458  0.3963E+00  0.5934E+02
     23.555  0.2103E+00  0.5936E+02
     23.653  0.3454E-01  0.5936E+02
     23.751 -0.1904E-01  0.5936E+02
     23.848 -0.1220E-01  0.5936E+02
     23.946 -0.6469E-02  0.5936E+02
     24.043 -0.1753E-01  0.5936E+02
     24.141 -0.3482E-01  0.5935E+02
     24.238  0.2360E-01  0.5936E+02
     24.336  0.2747E+00  0.5938E+02
     24.433  0.6739E+00  0.5945E+02
     24.531  0.1029E+01  0.5955E+02
     24.628  0.1102E+01  0.5966E+02
     24.726  0.7379E+00  0.5973E+02
     24.824  0.2245E+00  0.5975E+02
     24.921 -0.4506E-01  0.5975E+02
     25.019 -0.8317E-01  0.5974E+02
     25.116  0.4255E-01  0.5974E+02
     25.214  0.4290E+00  0.5978E+02
     25.311  0.8798E+00  0.5987E+02
     25.409  0.8892E+00  0.5996E+02
     25.506  0.4468E+00  0.6000E+02
     25.604  0.6317E-01  0.6001E+02
     25.701 -0.4192E-01  0.6000E+02
     25.799 -0.2352E-01  0.6000E+02
     25.897 -0.5299E-02  0.6000E+02
     25.994 -0.6452E-03  0.6000E+02
     26.092 -0.4562E-04  0.6000E+02
     26.189 -0.1926E-05  0.6000E+02
     26.287 -0.4924E-07  0.6000E+02
     26.384 -0.7675E-09  0.6000E+02
     26.482 -0.7330E-11  0.6000E+02
     26.579 -0.4283E-13  0.6000E+02
     26.677 -0.2914E-15  0.6000E+02
     26.774  0.0000E+00  0.6000E+02
     26.872  0.0000E+00  0.6000E+02
     26.970  0.0000E+00  0.6000E+02
     27.067  0.0000E+00  0.6000E+02
     27.165  0.0000E+00  0.6000E+02
     27.262  0.0000E+00  0.6000E+02
     27.360  0.0000E+00  0.6000E+02
