    4    4    1    1
  0.1444527E+02  0.3866000E-09  0.3866000E-09  0.3866000E-09  0.5000000E-15
  1.000000000000000E-004
  CAR 
 unknown system                          
     40     27     30
 
  0.0000000E+00  0.0000000E+00  0.0000000E+00  0.8000000E-02
    1        0.095986   1.000000
    2        2.587394   1.000000
    3        3.535821   1.000000
    4        3.553378   1.000000
    5        3.631086   1.000000
    6        3.723914   1.000000
    7        3.724496   1.000000
    8        6.202784   1.000000
    9        6.207276   1.000000
   10        6.340023   1.000000
   11        7.452269   1.000000
   12        7.581772   1.000000
   13        8.233166   1.000000
   14        8.390167   1.000000
   15        8.551986   1.000011
   16        9.249422   0.386344
   17        9.407854  -0.015927
   18        9.504627  -0.031336
   19        9.782460  -0.000272
   20       10.253626  -0.000000
   21       10.827593  -0.000000
   22       11.382011  -0.000000
   23       11.389472  -0.000000
   24       11.402605  -0.000000
   25       17.896360   0.000000
   26       18.139074   0.000000
   27       19.756137   0.000000
   28       20.281123   0.000000
   29       20.425824   0.000000
   30       20.663572   0.000000
 
  0.2000000E+00  0.0000000E+00  0.0000000E+00  0.1600000E-01
    1        0.563424   1.000000
    2        2.889892   1.000000
    3        3.699500   1.000000
    4        3.711679   1.000000
    5        3.910661   1.000000
    6        3.993135   1.000000
    7        4.057283   1.000000
    8        5.980141   1.000000
    9        6.352597   1.000000
   10        6.508580   1.000000
   11        7.359324   1.000000
   12        7.500215   1.000000
   13        7.684186   1.000000
   14        7.865532   1.000000
   15        8.008561   1.000000
   16        8.223685   1.000000
   17        9.022005   1.025273
   18        9.112485   0.895819
   19        9.251442   0.378075
   20        9.474296  -0.035275
   21        9.721404  -0.001181
   22       10.825986  -0.000000
   23       13.175630  -0.000000
   24       13.181735  -0.000000
   25       17.900731   0.000000
   26       18.012088   0.000000
   27       20.376535   0.000000
   28       20.418715   0.000000
   29       20.579898   0.000000
   30       20.979975   0.000000
 
  0.0000000E+00  0.2000000E+00  0.0000000E+00  0.1600000E-01
    1        0.614222   1.000000
    2        2.908717   1.000000
    3        3.659526   1.000000
    4        3.786268   1.000000
    5        3.852583   1.000000
    6        3.990774   1.000000
    7        4.080666   1.000000
    8        6.138678   1.000000
    9        6.380977   1.000000
   10        6.384411   1.000000
   11        7.289535   1.000000
   12        7.618587   1.000000
   13        7.628036   1.000000
   14        7.772984   1.000000
   15        8.283614   1.000000
   16        8.757208   1.002437
   17        9.028936   1.021324
   18        9.211110   0.547211
   19        9.233091   0.454358
   20        9.304855   0.181452
   21        9.486349  -0.034226
   22        9.702663  -0.001775
   23       13.285419  -0.000000
   24       13.401705  -0.000000
   25       17.421391   0.000000
   26       18.671628   0.000000
   27       20.312302   0.000000
   28       20.373762   0.000000
   29       20.575015   0.000000
   30       21.282793   0.000000
 
  0.0000000E+00  0.0000000E+00  0.2000000E+00  0.1600000E-01
    1        0.615904   1.000000
    2        2.920790   1.000000
    3        3.812700   1.000000
    4        3.861003   1.000000
    5        3.895535   1.000000
    6        3.906211   1.000000
    7        3.917393   1.000000
    8        5.959877   1.000000
    9        6.352474   1.000000
   10        6.509783   1.000000
   11        7.297105   1.000000
   12        7.586906   1.000000
   13        7.593285   1.000000
   14        7.947260   1.000000
   15        8.092422   1.000000
   16        8.531050   1.000006
   17        8.855743   1.013206
   18        9.139800   0.818292
   19        9.174864   0.694542
   20        9.311734   0.160245
   21        9.735149  -0.000865
   22       10.238697  -0.000000
   23       13.257473  -0.000000
   24       13.367653  -0.000000
   25       17.107216   0.000000
   26       18.879869   0.000000
   27       20.403938   0.000000
   28       20.426912   0.000000
   29       20.693653   0.000000
   30       21.204746   0.000000
 
  0.4000000E+00  0.0000000E+00  0.0000000E+00  0.1600000E-01
    1        1.677158   1.000000
    2        3.499909   1.000000
    3        3.799957   1.000000
    4        4.063225   1.000000
    5        4.713221   1.000000
    6        4.751999   1.000000
    7        4.844886   1.000000
    8        5.520491   1.000000
    9        6.044013   1.000000
   10        6.144016   1.000000
   11        6.855464   1.000000
   12        6.930677   1.000000
   13        6.967319   1.000000
   14        7.159094   1.000000
   15        7.340044   1.000000
   16        7.587159   1.000000
   17        8.213946   1.000000
   18        8.218117   1.000000
   19        8.250400   1.000000
   20        8.558324   1.000014
   21        9.351738   0.059907
   22       10.823863  -0.000000
   23       15.726564   0.000000
   24       15.802080   0.000000
   25       17.053381   0.000000
   26       18.027955   0.000000
   27       18.598208   0.000000
   28       18.720545   0.000000
   29       19.152016   0.000000
   30       21.813352   0.000000
 
  0.0000000E+00  0.4000000E+00  0.0000000E+00  0.1600000E-01
    1        1.987976   1.000000
    2        3.296134   1.000000
    3        3.783215   1.000000
    4        4.117633   1.000000
    5        4.649907   1.000000
    6        4.699179   1.000000
    7        4.965000   1.000000
    8        5.732382   1.000000
    9        6.342897   1.000000
   10        6.367372   1.000000
   11        6.815943   1.000000
   12        6.902411   1.000000
   13        6.921527   1.000000
   14        7.088859   1.000000
   15        7.566306   1.000000
   16        7.883285   1.000000
   17        7.892450   1.000000
   18        8.093474   1.000000
   19        8.197174   1.000000
   20        8.458928   1.000000
   21        9.148643   0.789430
   22        9.469566  -0.035437
   23       15.909425   0.000000
   24       15.959523   0.000000
   25       16.681517   0.000000
   26       18.465579   0.000000
   27       18.494645   0.000000
   28       18.619559   0.000000
   29       20.475777   0.000000
   30       20.727976   0.000000
 
  0.0000000E+00  0.0000000E+00  0.4000000E+00  0.1600000E-01
    1        2.002853   1.000000
    2        3.294357   1.000000
    3        3.992506   1.000000
    4        4.355424   1.000000
    5        4.641156   1.000000
    6        4.737375   1.000000
    7        4.750274   1.000000
    8        5.413537   1.000000
    9        6.036322   1.000000
   10        6.152567   1.000000
   11        6.824054   1.000000
   12        6.978814   1.000000
   13        6.984249   1.000000
   14        7.119815   1.000000
   15        7.390141   1.000000
   16        7.719083   1.000000
   17        8.026033   1.000000
   18        8.055595   1.000000
   19        8.432718   1.000000
   20        8.503748   1.000002
   21        8.945058   1.032267
   22       10.218200  -0.000000
   23       15.885281   0.000000
   24       16.016191   0.000000
   25       16.239188   0.000000
   26       18.437957   0.000000
   27       18.712874   0.000000
   28       18.984287   0.000000
   29       20.070009   0.000000
   30       21.084450   0.000000
 
  0.2000000E+00  0.2000000E+00  0.0000000E+00  0.3200000E-01
    1        1.059578   1.000000
    2        3.198611   1.000000
    3        3.931655   1.000000
    4        3.939629   1.000000
    5        4.110790   1.000000
    6        4.115987   1.000000
    7        4.395058   1.000000
    8        5.924564   1.000000
    9        6.403183   1.000000
   10        6.538731   1.000000
   11        7.058828   1.000000
   12        7.256036   1.000000
   13        7.286630   1.000000
   14        7.351658   1.000000
   15        7.809168   1.000000
   16        7.997297   1.000000
   17        8.363530   1.000000
   18        8.925246   1.028306
   19        8.981285   1.035396
   20        9.068972   0.980995
   21        9.741625  -0.000744
   22       10.898562  -0.000000
   23       11.886465  -0.000000
   24       14.550224  -0.000000
   25       16.953371   0.000000
   26       19.014678   0.000000
   27       20.034131   0.000000
   28       20.410543   0.000000
   29       21.035354   0.000000
   30       21.671652   0.000000
 
  0.0000000E+00  0.2000000E+00  0.2000000E+00  0.3200000E-01
    1        1.085292   1.000000
    2        3.233823   1.000000
    3        3.917012   1.000000
    4        3.985141   1.000000
    5        4.046742   1.000000
    6        4.228811   1.000000
    7        4.340574   1.000000
    8        5.905965   1.000000
    9        6.405814   1.000000
   10        6.541180   1.000000
   11        7.080119   1.000000
   12        7.238814   1.000000
   13        7.299835   1.000000
   14        7.327676   1.000000
   15        7.772824   1.000000
   16        8.105567   1.000000
   17        8.460217   1.000000
   18        8.727120   1.001289
   19        8.936336   1.030635
   20        8.939066   1.031168
   21        9.570627  -0.016769
   22       10.930571  -0.000000
   23       12.250165  -0.000000
   24       14.454373  -0.000000
   25       16.813671   0.000000
   26       19.063366   0.000000
   27       19.517027   0.000000
   28       20.940125   0.000000
   29       21.193261   0.000000
   30       21.922648   0.000000
 
  0.2000000E+00  0.0000000E+00  0.2000000E+00  0.3200000E-01
    1        1.059493   1.000000
    2        3.213951   1.000000
    3        3.941653   1.000000
    4        3.958315   1.000000
    5        4.071982   1.000000
    6        4.230857   1.000000
    7        4.330111   1.000000
    8        5.787124   1.000000
    9        6.464986   1.000000
   10        6.565203   1.000000
   11        7.030692   1.000000
   12        7.242380   1.000000
   13        7.244065   1.000000
   14        7.309713   1.000000
   15        7.805197   1.000000
   16        7.855493   1.000000
   17        8.237176   1.000000
   18        9.013831   1.028977
   19        9.075172   0.971682
   20        9.272768   0.293754
   21        9.860787  -0.000031
   22       11.150606  -0.000000
   23       11.547152  -0.000000
   24       14.542968  -0.000000
   25       16.920853   0.000000
   26       18.944167   0.000000
   27       19.977970   0.000000
   28       20.533051   0.000000
   29       21.107883   0.000000
   30       21.807799   0.000000
 
  0.4000000E+00  0.2000000E+00  0.0000000E+00  0.3200000E-01
    1        2.141344   1.000000
    2        3.774981   1.000000
    3        4.125821   1.000000
    4        4.303680   1.000000
    5        4.680376   1.000000
    6        4.841826   1.000000
    7        5.033095   1.000000
    8        5.475695   1.000000
    9        5.684197   1.000000
   10        6.096695   1.000000
   11        6.366893   1.000000
   12        6.485436   1.000000
   13        6.941348   1.000000
   14        7.194365   1.000000
   15        7.338660   1.000000
   16        7.681965   1.000000
   17        7.855741   1.000000
   18        8.419979   1.000000
   19        8.459605   1.000000
   20        8.954414   1.033734
   21        9.568076  -0.017304
   22        9.828450  -0.000079
   23       13.136227  -0.000000
   24       15.188222   0.000000
   25       16.919792   0.000000
   26       18.084075   0.000000
   27       19.553144   0.000000
   28       19.818989   0.000000
   29       21.820947   0.000000
   30       23.075696   0.000000
 
  0.0000000E+00  0.4000000E+00  0.2000000E+00  0.3200000E-01
    1        2.341469   1.000000
    2        3.638154   1.000000
    3        4.033710   1.000000
    4        4.311359   1.000000
    5        4.602960   1.000000
    6        4.820012   1.000000
    7        5.159657   1.000000
    8        5.633212   1.000000
    9        5.795269   1.000000
   10        6.273820   1.000000
   11        6.348729   1.000000
   12        6.500814   1.000000
   13        6.930902   1.000000
   14        7.156702   1.000000
   15        7.628966   1.000000
   16        7.707784   1.000000
   17        7.780497   1.000000
   18        8.200343   1.000000
   19        8.400024   1.000000
   20        8.968403   1.035169
   21        9.083826   0.957159
   22        9.391687  -0.001114
   23       13.599269  -0.000000
   24       15.148590   0.000000
   25       16.787473   0.000000
   26       18.363125   0.000000
   27       19.381484   0.000000
   28       19.566693   0.000000
   29       21.671724   0.000000
   30       23.302306   0.000000
 
  0.2000000E+00  0.0000000E+00  0.4000000E+00  0.3200000E-01
    1        2.377862   1.000000
    2        3.647234   1.000000
    3        4.251736   1.000000
    4        4.448866   1.000000
    5        4.636551   1.000000
    6        4.962023   1.000000
    7        4.962714   1.000000
    8        5.291997   1.000000
    9        5.576878   1.000000
   10        6.154533   1.000000
   11        6.425903   1.000000
   12        6.518130   1.000000
   13        6.965854   1.000000
   14        7.204731   1.000000
   15        7.361679   1.000000
   16        7.696284   1.000000
   17        7.996204   1.000000
   18        8.300370   1.000000
   19        8.472646   1.000001
   20        8.706420   1.000806
   21        9.299219   0.199637
   22        9.465805  -0.035450
   23       13.465571  -0.000000
   24       15.190102   0.000000
   25       16.834332   0.000000
   26       17.953521   0.000000
   27       19.367687   0.000000
   28       20.130103   0.000000
   29       21.939628   0.000000
   30       22.956116   0.000000
 
 -0.2000000E+00  0.4000000E+00  0.0000000E+00  0.3200000E-01
    1        2.375852   1.000000
    2        3.626403   1.000000
    3        4.081993   1.000000
    4        4.325872   1.000000
    5        4.621840   1.000000
    6        4.782095   1.000000
    7        5.143544   1.000000
    8        5.636824   1.000000
    9        5.967235   1.000000
   10        6.257280   1.000000
   11        6.266782   1.000000
   12        6.484149   1.000000
   13        6.930727   1.000000
   14        7.189136   1.000000
   15        7.536788   1.000000
   16        7.733095   1.000000
   17        7.813104   1.000000
   18        8.218515   1.000000
   19        8.473185   1.000001
   20        8.878110   1.017647
   21        8.984324   1.035261
   22        9.252474   0.373865
   23       13.514239  -0.000000
   24       15.180834   0.000000
   25       16.832887   0.000000
   26       18.328578   0.000000
   27       19.351190   0.000000
   28       19.752407   0.000000
   29       21.982986   0.000000
   30       22.980693   0.000000
 
 -0.4000000E+00  0.0000000E+00  0.2000000E+00  0.3200000E-01
    1        2.137206   1.000000
    2        3.812812   1.000000
    3        4.085290   1.000000
    4        4.272982   1.000000
    5        4.629775   1.000000
    6        4.885902   1.000000
    7        5.081207   1.000000
    8        5.424672   1.000000
    9        5.597874   1.000000
   10        6.160292   1.000000
   11        6.433665   1.000000
   12        6.528369   1.000000
   13        6.951724   1.000000
   14        7.205369   1.000000
   15        7.299420   1.000000
   16        7.671029   1.000000
   17        8.076576   1.000000
   18        8.169558   1.000000
   19        8.553601   1.000012
   20        8.980444   1.035420
   21        9.535278  -0.024688
   22        9.782358  -0.000273
   23       13.115673  -0.000000
   24       15.253025   0.000000
   25       16.871457   0.000000
   26       18.048769   0.000000
   27       19.457178   0.000000
   28       19.753988   0.000000
   29       21.931225   0.000000
   30       22.960907   0.000000
 
  0.0000000E+00  0.2000000E+00  0.4000000E+00  0.3200000E-01
    1        2.349440   1.000000
    2        3.621135   1.000000
    3        4.253794   1.000000
    4        4.480560   1.000000
    5        4.652069   1.000000
    6        4.924675   1.000000
    7        4.934326   1.000000
    8        5.355100   1.000000
    9        5.566449   1.000000
   10        6.102290   1.000000
   11        6.341076   1.000000
   12        6.514711   1.000000
   13        6.967300   1.000000
   14        7.159178   1.000000
   15        7.458029   1.000000
   16        7.716640   1.000000
   17        7.777929   1.000000
   18        8.320723   1.000000
   19        8.626284   1.000104
   20        8.647832   1.000187
   21        9.483438  -0.034554
   22        9.583412  -0.014216
   23       13.560469  -0.000000
   24       15.092038   0.000000
   25       16.844614   0.000000
   26       18.007481   0.000000
   27       19.487116   0.000000
   28       20.008592   0.000000
   29       21.548406   0.000000
   30       23.414382   0.000000
 
  0.4000000E+00  0.4000000E+00  0.0000000E+00  0.3200000E-01
    1        3.286667   1.000000
    2        4.203379   1.000000
    3        4.476045   1.000000
    4        4.813881   1.000000
    5        4.876139   1.000000
    6        5.091570   1.000000
    7        5.212812   1.000000
    8        5.332086   1.000000
    9        5.389687   1.000000
   10        5.870533   1.000000
   11        6.005976   1.000000
   12        6.280900   1.000000
   13        6.920819   1.000000
   14        7.092645   1.000000
   15        7.110554   1.000000
   16        7.341054   1.000000
   17        7.533077   1.000000
   18        8.113029   1.000000
   19        8.422088   1.000000
   20        8.456655   1.000000
   21        9.176771   0.687176
   22       10.159561  -0.000000
   23       11.635211  -0.000000
   24       12.967779  -0.000000
   25       18.819726   0.000000
   26       18.948720   0.000000
   27       20.500454   0.000000
   28       21.180836   0.000000
   29       21.231405   0.000000
   30       21.654348   0.000000
 
  0.0000000E+00  0.4000000E+00  0.4000000E+00  0.3200000E-01
    1        3.181335   1.000000
    2        3.988267   1.000000
    3        4.375294   1.000000
    4        4.773531   1.000000
    5        4.992512   1.000000
    6        5.118749   1.000000
    7        5.138612   1.000000
    8        5.411252   1.000000
    9        5.427349   1.000000
   10        5.894328   1.000000
   11        6.095015   1.000000
   12        6.278779   1.000000
   13        6.917414   1.000000
   14        7.080439   1.000000
   15        7.163741   1.000000
   16        7.239766   1.000000
   17        7.430723   1.000000
   18        8.061690   1.000000
   19        8.645106   1.000174
   20        8.698762   1.000674
   21        9.241363   0.419688
   22        9.993080  -0.000000
   23       12.197605  -0.000000
   24       13.028104  -0.000000
   25       18.563276   0.000000
   26       18.690365   0.000000
   27       20.381635   0.000000
   28       20.516161   0.000000
   29       21.054433   0.000000
   30       22.109281   0.000000
 
  0.4000000E+00  0.0000000E+00  0.4000000E+00  0.3200000E-01
    1        3.254493   1.000000
    2        4.356809   1.000000
    3        4.429363   1.000000
    4        4.684807   1.000000
    5        4.764303   1.000000
    6        5.007734   1.000000
    7        5.059264   1.000000
    8        5.273483   1.000000
    9        5.583641   1.000000
   10        6.025543   1.000000
   11        6.152723   1.000000
   12        6.387485   1.000000
   13        6.873803   1.000000
   14        7.093978   1.000000
   15        7.102263   1.000000
   16        7.350411   1.000000
   17        7.833572   1.000000
   18        7.977823   1.000000
   19        8.218207   1.000000
   20        8.321527   1.000000
   21        9.367770   0.030920
   22       10.558070  -0.000000
   23       11.182368  -0.000000
   24       12.855448  -0.000000
   25       18.728298   0.000000
   26       18.904512   0.000000
   27       20.695240   0.000000
   28       21.018000   0.000000
   29       21.421700   0.000000
   30       21.479388   0.000000
 
  0.2000000E+00  0.2000000E+00  0.2000000E+00  0.6400000E-01
    1        1.473692   1.000000
    2        3.433176   1.000000
    3        4.002234   1.000000
    4        4.140157   1.000000
    5        4.195300   1.000000
    6        4.567354   1.000000
    7        4.694054   1.000000
    8        5.736389   1.000000
    9        6.461448   1.000000
   10        6.552007   1.000000
   11        6.669087   1.000000
   12        6.858473   1.000000
   13        7.044735   1.000000
   14        7.308787   1.000000
   15        7.416884   1.000000
   16        7.633245   1.000000
   17        8.332202   1.000000
   18        8.410236   1.000000
   19        8.548495   1.000010
   20        9.116435   0.885742
   21        9.847216  -0.000046
   22       11.839868  -0.000000
   23       12.504215  -0.000000
   24       12.725882  -0.000000
   25       17.657121   0.000000
   26       17.894282   0.000000
   27       18.609663   0.000000
   28       21.110624   0.000000
   29       21.520524   0.000000
   30       21.685585   0.000000
 
  0.4000000E+00  0.2000000E+00  0.2000000E+00  0.6400000E-01
    1        2.394333   1.000000
    2        3.730123   1.000000
    3        4.219966   1.000000
    4        4.560228   1.000000
    5        4.574869   1.000000
    6        4.853601   1.000000
    7        5.363915   1.000000
    8        5.552630   1.000000
    9        5.821213   1.000000
   10        6.021344   1.000000
   11        6.385575   1.000000
   12        6.491645   1.000000
   13        6.693588   1.000000
   14        7.047446   1.000000
   15        7.123696   1.000000
   16        7.577280   1.000000
   17        8.134336   1.000000
   18        8.218253   1.000000
   19        8.656896   1.000238
   20        9.042606   1.011120
   21        9.531035  -0.025667
   22        9.805053  -0.000150
   23       13.816669  -0.000000
   24       13.833482  -0.000000
   25       15.538111   0.000000
   26       16.277432   0.000000
   27       20.114343   0.000000
   28       21.504302   0.000000
   29       22.090740   0.000000
   30       22.352825   0.000000
 
  0.2000000E+00  0.4000000E+00  0.2000000E+00  0.6400000E-01
    1        2.560337   1.000000
    2        3.632467   1.000000
    3        4.032677   1.000000
    4        4.524896   1.000000
    5        4.687698   1.000000
    6        4.889880   1.000000
    7        5.543125   1.000000
    8        5.621147   1.000000
    9        5.804495   1.000000
   10        6.111044   1.000000
   11        6.475945   1.000000
   12        6.511599   1.000000
   13        6.617023   1.000000
   14        7.044344   1.000000
   15        7.201075   1.000000
   16        7.298452   1.000000
   17        8.196886   1.000000
   18        8.274064   1.000000
   19        8.456278   1.000000
   20        8.961182   1.034559
   21        9.388115   0.002868
   22        9.672979  -0.003242
   23       13.818771  -0.000000
   24       14.049378  -0.000000
   25       15.586068   0.000000
   26       16.150733   0.000000
   27       20.194772   0.000000
   28       21.574691   0.000000
   29       22.228451   0.000000
   30       22.395076   0.000000
 
  0.2000000E+00  0.2000000E+00  0.4000000E+00  0.6400000E-01
    1        2.564236   1.000000
    2        3.632447   1.000000
    3        4.178678   1.000000
    4        4.514632   1.000000
    5        4.702473   1.000000
    6        5.068186   1.000000
    7        5.204440   1.000000
    8        5.536028   1.000000
    9        5.769356   1.000000
   10        5.996846   1.000000
   11        6.376436   1.000000
   12        6.496503   1.000000
   13        6.701385   1.000000
   14        7.068431   1.000000
   15        7.164209   1.000000
   16        7.449472   1.000000
   17        8.211372   1.000000
   18        8.236016   1.000000
   19        8.580807   1.000028
   20        8.901396   1.022860
   21        9.468957  -0.035447
   22        9.753123  -0.000566
   23       13.823953  -0.000000
   24       13.990433  -0.000000
   25       15.570453   0.000000
   26       16.241050   0.000000
   27       20.101678   0.000000
   28       21.351715   0.000000
   29       22.190769   0.000000
   30       22.457983   0.000000
 
  0.4000000E+00  0.4000000E+00  0.2000000E+00  0.6400000E-01
    1        3.047878   1.000000
    2        3.555793   1.000000
    3        3.887421   1.000000
    4        4.268976   1.000000
    5        5.201026   1.000000
    6        5.502541   1.000000
    7        5.740612   1.000000
    8        5.922213   1.000000
    9        6.082253   1.000000
   10        6.134439   1.000000
   11        6.342410   1.000000
   12        6.516000   1.000000
   13        6.610303   1.000000
   14        6.731736   1.000000
   15        6.887994   1.000000
   16        6.964728   1.000000
   17        7.945825   1.000000
   18        8.380756   1.000000
   19        8.779246   1.003754
   20        9.107689   0.907526
   21        9.242110   0.416576
   22       10.280226  -0.000000
   23       11.515971  -0.000000
   24       12.720257  -0.000000
   25       15.809049   0.000000
   26       17.480741   0.000000
   27       17.911092   0.000000
   28       19.890021   0.000000
   29       22.764944   0.000000
   30       24.553463   0.000000
 
  0.2000000E+00  0.4000000E+00  0.4000000E+00  0.6400000E-01
    1        3.031595   1.000000
    2        3.594856   1.000000
    3        3.657291   1.000000
    4        4.280913   1.000000
    5        5.206053   1.000000
    6        5.502346   1.000000
    7        5.728508   1.000000
    8        5.973133   1.000000
    9        6.094360   1.000000
   10        6.131226   1.000000
   11        6.335383   1.000000
   12        6.522975   1.000000
   13        6.618392   1.000000
   14        6.732617   1.000000
   15        6.885024   1.000000
   16        6.951552   1.000000
   17        7.987218   1.000000
   18        8.412218   1.000000
   19        8.903780   1.023411
   20        9.090996   0.943743
   21        9.219980   0.509759
   22       10.162309  -0.000000
   23       11.996905  -0.000000
   24       12.906313  -0.000000
   25       15.548981   0.000000
   26       17.063483   0.000000
   27       17.941698   0.000000
   28       19.862410   0.000000
   29       22.854882   0.000000
   30       24.399360   0.000000
 
  0.4000000E+00  0.2000000E+00  0.4000000E+00  0.6400000E-01
    1        3.041242   1.000000
    2        3.586726   1.000000
    3        3.923875   1.000000
    4        4.109809   1.000000
    5        5.172321   1.000000
    6        5.403334   1.000000
    7        5.714515   1.000000
    8        6.078042   1.000000
    9        6.192311   1.000000
   10        6.224846   1.000000
   11        6.440382   1.000000
   12        6.463277   1.000000
   13        6.609874   1.000000
   14        6.788375   1.000000
   15        6.840648   1.000000
   16        6.899755   1.000000
   17        8.103411   1.000000
   18        8.144714   1.000000
   19        8.604056   1.000056
   20        9.238074   0.433428
   21        9.368496   0.029754
   22       10.648069  -0.000000
   23       11.067640  -0.000000
   24       12.657705  -0.000000
   25       15.781477   0.000000
   26       17.519856   0.000000
   27       17.898686   0.000000
   28       19.950403   0.000000
   29       22.628633   0.000000
   30       24.629787   0.000000
 
  0.4000000E+00  0.4000000E+00  0.4000000E+00  0.6400000E-01
    1        2.918430   1.000000
    2        3.044897   1.000000
    3        3.290009   1.000000
    4        3.660977   1.000000
    5        5.633936   1.000000
    6        5.748780   1.000000
    7        5.831646   1.000000
    8        6.118089   1.000000
    9        6.191426   1.000000
   10        6.423117   1.000000
   11        6.428882   1.000000
   12        6.622427   1.000000
   13        7.291904   1.000000
   14        7.354034   1.000000
   15        7.512858   1.000000
   16        7.845593   1.000000
   17        8.293673   1.000000
   18        8.707380   1.000825
   19        8.770534   1.003176
   20        9.189723   0.635786
   21        9.727053  -0.001040
   22       10.497432  -0.000000
   23       10.887057  -0.000000
   24       11.111724  -0.000000
   25       14.993994   0.000000
   26       15.386068   0.000000
   27       16.189916   0.000000
   28       17.708733   0.000000
   29       25.265874   0.000000
   30       25.359731   0.000000
