unknown system                          
   1.00000000000000     
     3.445083    0.000000    0.000000
     0.000000    3.445083    0.000000
     0.000000    0.000000    3.445083
   Fe
     4
Direct
  0.000000  0.000000  0.000000
  0.500000  0.500000  0.000000
  0.500000  0.000000  0.500000
  0.000000  0.500000  0.500000
 
   28   28   28
  343.17      323.18      270.20      200.83      132.53      77.378      40.770      22.143      15.657      13.043    
  11.407      10.338      9.7237      9.5457      9.5490      9.5457      9.7237      10.338      11.407      13.043    
  15.657      22.143      40.770      77.378      132.53      200.83      270.20      323.18      323.18      304.33    
  254.33      188.85      124.45      72.650      38.559      21.469      15.569      13.030      11.430      10.376    
  9.7558      9.5556      9.5457      9.5556      9.7558      10.376      11.430      13.030      15.569      21.469    
  38.559      72.650      124.45      188.85      254.33      304.33      270.20      254.33      212.21      157.09    
  103.15      60.344      32.956      19.851      15.347      13.020      11.549      10.575      9.9816      9.7558    
  9.7237      9.7558      9.9816      10.575      11.549      13.020      15.347      19.851      32.956      60.344    
  103.15      157.09      212.21      254.33      200.83      188.85      157.09      115.73      75.781      45.008    
  26.378      18.159      15.048      13.074      11.848      11.055      10.575      10.376      10.338      10.376    
  10.575      11.055      11.848      13.074      15.048      18.159      26.378      45.008      75.781      115.73    
  157.09      188.85      132.53      124.45      103.15      75.781      50.120      31.434      21.150      16.981    
  14.754      13.260      12.377      11.848      11.549      11.430      11.407      11.430      11.549      11.848    
  12.377      13.260      14.754      16.981      21.150      31.434      50.120      75.781      103.15      124.45    
  77.378      72.650      60.344      45.008      31.434      22.492      18.200      16.123      14.609      13.703    
  13.260      13.074      13.020      13.030      13.043      13.030      13.020      13.074      13.260      13.703    
  14.609      16.123      18.200      22.492      31.434      45.008      60.344      72.650      40.770      38.559    
  32.956      26.378      21.150      18.200      16.647      15.477      14.798      14.609      14.754      15.048    
  15.347      15.569      15.657      15.569      15.347      15.048      14.754      14.609      14.798      15.477    
  16.647      18.200      21.150      26.378      32.956      38.559      22.143      21.469      19.851      18.159    
  16.981      16.123      15.477      15.235      15.477      16.123      16.981      18.159      19.851      21.469    
  22.143      21.469      19.851      18.159      16.981      16.123      15.477      15.235      15.477      16.123    
  16.981      18.159      19.851      21.469      15.657      15.569      15.347      15.048      14.754      14.609    
  14.798      15.477      16.647      18.200      21.150      26.378      32.956      38.559      40.770      38.559    
  32.956      26.378      21.150      18.200      16.647      15.477      14.798      14.609      14.754      15.048    
  15.347      15.569      13.043      13.030      13.020      13.074      13.260      13.703      14.609      16.123    
  18.200      22.492      31.434      45.008      60.344      72.650      77.378      72.650      60.344      45.008    
  31.434      22.492      18.200      16.123      14.609      13.703      13.260      13.074      13.020      13.030    
  11.407      11.430      11.549      11.848      12.377      13.260      14.754      16.981      21.150      31.434    
  50.120      75.781      103.15      124.45      132.53      124.45      103.15      75.781      50.120      31.434    
  21.150      16.981      14.754      13.260      12.377      11.848      11.549      11.430      10.338      10.376    
  10.575      11.055      11.848      13.074      15.048      18.159      26.378      45.008      75.781      115.73    
  157.09      188.85      200.83      188.85      157.09      115.73      75.781      45.008      26.378      18.159    
  15.048      13.074      11.848      11.055      10.575      10.376      9.7237      9.7558      9.9816      10.575    
  11.549      13.020      15.347      19.851      32.956      60.344      103.15      157.09      212.21      254.33    
  270.20      254.33      212.21      157.09      103.15      60.344      32.956      19.851      15.347      13.020    
  11.549      10.575      9.9816      9.7558      9.5457      9.5556      9.7558      10.376      11.430      13.030    
  15.569      21.469      38.559      72.650      124.45      188.85      254.33      304.33      323.18      304.33    
  254.33      188.85      124.45      72.650      38.559      21.469      15.569      13.030      11.430      10.376    
  9.7558      9.5556      9.5490      9.5457      9.7237      10.338      11.407      13.043      15.657      22.143    
  40.770      77.378      132.53      200.83      270.20      323.18      343.17      323.18      270.20      200.83    
  132.53      77.378      40.770      22.143      15.657      13.043      11.407      10.338      9.7237      9.5457    
  9.5457      9.5556      9.7558      10.376      11.430      13.030      15.569      21.469      38.559      72.650    
  124.45      188.85      254.33      304.33      323.18      304.33      254.33      188.85      124.45      72.650    
  38.559      21.469      15.569      13.030      11.430      10.376      9.7558      9.5556      9.7237      9.7558    
  9.9816      10.575      11.549      13.020      15.347      19.851      32.956      60.344      103.15      157.09    
  212.21      254.33      270.20      254.33      212.21      157.09      103.15      60.344      32.956      19.851    
  15.347      13.020      11.549      10.575      9.9816      9.7558      10.338      10.376      10.575      11.055    
  11.848      13.074      15.048      18.159      26.378      45.008      75.781      115.73      157.09      188.85    
  200.83      188.85      157.09      115.73      75.781      45.008      26.378      18.159      15.048      13.074    
  11.848      11.055      10.575      10.376      11.407      11.430      11.549      11.848      12.377      13.260    
  14.754      16.981      21.150      31.434      50.120      75.781      103.15      124.45      132.53      124.45    
  103.15      75.781      50.120      31.434      21.150      16.981      14.754      13.260      12.377      11.848    
  11.549      11.430      13.043      13.030      13.020      13.074      13.260      13.703      14.609      16.123    
  18.200      22.492      31.434      45.008      60.344      72.650      77.378      72.650      60.344      45.008    
  31.434      22.492      18.200      16.123      14.609      13.703      13.260      13.074      13.020      13.030    
  15.657      15.569      15.347      15.048      14.754      14.609      14.798      15.477      16.647      18.200    
  21.150      26.378      32.956      38.559      40.770      38.559      32.956      26.378      21.150      18.200    
  16.647      15.477      14.798      14.609      14.754      15.048      15.347      15.569      22.143      21.469    
  19.851      18.159      16.981      16.123      15.477      15.235      15.477      16.123      16.981      18.159    
  19.851      21.469      22.143      21.469      19.851      18.159      16.981      16.123      15.477      15.235    
  15.477      16.123      16.981      18.159      19.851      21.469      40.770      38.559      32.956      26.378    
  21.150      18.200      16.647      15.477      14.798      14.609      14.754      15.048      15.347      15.569    
  15.657      15.569      15.347      15.048      14.754      14.609      14.798      15.477      16.647      18.200    
  21.150      26.378      32.956      38.559      77.378      72.650      60.344      45.008      31.434      22.492    
  18.200      16.123      14.609      13.703      13.260      13.074      13.020      13.030      13.043      13.030    
  13.020      13.074      13.260      13.703      14.609      16.123      18.200      22.492      31.434      45.008    
  60.344      72.650      132.53      124.45      103.15      75.781      50.120      31.434      21.150      16.981    
  14.754      13.260      12.377      11.848      11.549      11.430      11.407      11.430      11.549      11.848    
  12.377      13.260      14.754      16.981      21.150      31.434      50.120      75.781      103.15      124.45    
  200.83      188.85      157.09      115.73      75.781      45.008      26.378      18.159      15.048      13.074    
  11.848      11.055      10.575      10.376      10.338      10.376      10.575      11.055      11.848      13.074    
  15.048      18.159      26.378      45.008      75.781      115.73      157.09      188.85      270.20      254.33    
  212.21      157.09      103.15      60.344      32.956      19.851      15.347      13.020      11.549      10.575    
  9.9816      9.7558      9.7237      9.7558      9.9816      10.575      11.549      13.020      15.347      19.851    
  32.956      60.344      103.15      157.09      212.21      254.33      323.18      304.33      254.33      188.85    
  124.45      72.650      38.559      21.469      15.569      13.030      11.430      10.376      9.7558      9.5556    
  9.5457      9.5556      9.7558      10.376      11.430      13.030      15.569      21.469      38.559      72.650    
  124.45      188.85      254.33      304.33      323.18      304.33      254.33      188.85      124.45      72.650    
  38.559      21.469      15.569      13.030      11.430      10.376      9.7558      9.5556      9.5457      9.5556    
  9.7558      10.376      11.430      13.030      15.569      21.469      38.559      72.650      124.45      188.85    
  254.33      304.33      304.33      286.54      239.35      177.55      116.85      68.233      36.519      20.860    
  15.485      13.018      11.456      10.419      9.7964      9.5772      9.5556      9.5772      9.7964      10.419    
  11.456      13.018      15.485      20.860      36.519      68.233      116.85      177.55      239.35      286.54    
  254.33      239.35      199.61      147.62      96.843      56.755      31.361      19.405      15.266      13.009    
  11.579      10.625      10.035      9.7964      9.7558      9.7964      10.035      10.625      11.579      13.009    
  15.266      19.405      31.361      56.755      96.843      147.62      199.61      239.35      188.85      177.55    
  147.62      108.69      71.195      42.503      25.340      17.888      14.963      13.058      11.873      11.100    
  10.625      10.419      10.376      10.419      10.625      11.100      11.873      13.058      14.963      17.888    
  25.340      42.503      71.195      108.69      147.62      177.55      124.45      116.85      96.843      71.195    
  47.255      29.973      20.599      16.809      14.666      13.233      12.384      11.873      11.579      11.456    
  11.430      11.456      11.579      11.873      12.384      13.233      14.666      16.809      20.599      29.973    
  47.255      71.195      96.843      116.85      72.650      68.233      56.755      42.503      29.973      21.816    
  17.940      15.966      14.515      13.653      13.233      13.058      13.009      13.018      13.030      13.018    
  13.009      13.058      13.233      13.653      14.515      15.966      17.940      21.816      29.973      42.503    
  56.755      68.233      38.559      36.519      31.361      25.340      20.599      17.940      16.462      15.333    
  14.687      14.515      14.666      14.963      15.266      15.485      15.569      15.485      15.266      14.963    
  14.666      14.515      14.687      15.333      16.462      17.940      20.599      25.340      31.361      36.519    
  21.469      20.860      19.405      17.888      16.809      15.966      15.333      15.097      15.333      15.966    
  16.809      17.888      19.405      20.860      21.469      20.860      19.405      17.888      16.809      15.966    
  15.333      15.097      15.333      15.966      16.809      17.888      19.405      20.860      15.569      15.485    
  15.266      14.963      14.666      14.515      14.687      15.333      16.462      17.940      20.599      25.340    
  31.361      36.519      38.559      36.519      31.361      25.340      20.599      17.940      16.462      15.333    
  14.687      14.515      14.666      14.963      15.266      15.485      13.030      13.018      13.009      13.058    
  13.233      13.653      14.515      15.966      17.940      21.816      29.973      42.503      56.755      68.233    
  72.650      68.233      56.755      42.503      29.973      21.816      17.940      15.966      14.515      13.653    
  13.233      13.058      13.009      13.018      11.430      11.456      11.579      11.873      12.384      13.233    
  14.666      16.809      20.599      29.973      47.255      71.195      96.843      116.85      124.45      116.85    
  96.843      71.195      47.255      29.973      20.599      16.809      14.666      13.233      12.384      11.873    
  11.579      11.456      10.376      10.419      10.625      11.100      11.873      13.058      14.963      17.888    
  25.340      42.503      71.195      108.69      147.62      177.55      188.85      177.55      147.62      108.69    
  71.195      42.503      25.340      17.888      14.963      13.058      11.873      11.100      10.625      10.419    
  9.7558      9.7964      10.035      10.625      11.579      13.009      15.266      19.405      31.361      56.755    
  96.843      147.62      199.61      239.35      254.33      239.35      199.61      147.62      96.843      56.755    
  31.361      19.405      15.266      13.009      11.579      10.625      10.035      9.7964      9.5556      9.5772    
  9.7964      10.419      11.456      13.018      15.485      20.860      36.519      68.233      116.85      177.55    
  239.35      286.54      304.33      286.54      239.35      177.55      116.85      68.233      36.519      20.860    
  15.485      13.018      11.456      10.419      9.7964      9.5772      9.5457      9.5556      9.7558      10.376    
  11.430      13.030      15.569      21.469      38.559      72.650      124.45      188.85      254.33      304.33    
  323.18      304.33      254.33      188.85      124.45      72.650      38.559      21.469      15.569      13.030    
  11.430      10.376      9.7558      9.5556      9.5556      9.5772      9.7964      10.419      11.456      13.018    
  15.485      20.860      36.519      68.233      116.85      177.55      239.35      286.54      304.33      286.54    
  239.35      177.55      116.85      68.233      36.519      20.860      15.485      13.018      11.456      10.419    
  9.7964      9.5772      9.7558      9.7964      10.035      10.625      11.579      13.009      15.266      19.405    
  31.361      56.755      96.843      147.62      199.61      239.35      254.33      239.35      199.61      147.62    
  96.843      56.755      31.361      19.405      15.266      13.009      11.579      10.625      10.035      9.7964    
  10.376      10.419      10.625      11.100      11.873      13.058      14.963      17.888      25.340      42.503    
  71.195      108.69      147.62      177.55      188.85      177.55      147.62      108.69      71.195      42.503    
  25.340      17.888      14.963      13.058      11.873      11.100      10.625      10.419      11.430      11.456    
  11.579      11.873      12.384      13.233      14.666      16.809      20.599      29.973      47.255      71.195    
  96.843      116.85      124.45      116.85      96.843      71.195      47.255      29.973      20.599      16.809    
  14.666      13.233      12.384      11.873      11.579      11.456      13.030      13.018      13.009      13.058    
  13.233      13.653      14.515      15.966      17.940      21.816      29.973      42.503      56.755      68.233    
  72.650      68.233      56.755      42.503      29.973      21.816      17.940      15.966      14.515      13.653    
  13.233      13.058      13.009      13.018      15.569      15.485      15.266      14.963      14.666      14.515    
  14.687      15.333      16.462      17.940      20.599      25.340      31.361      36.519      38.559      36.519    
  31.361      25.340      20.599      17.940      16.462      15.333      14.687      14.515      14.666      14.963    
  15.266      15.485      21.469      20.860      19.405      17.888      16.809      15.966      15.333      15.097    
  15.333      15.966      16.809      17.888      19.405      20.860      21.469      20.860      19.405      17.888    
  16.809      15.966      15.333      15.097      15.333      15.966      16.809      17.888      19.405      20.860    
  38.559      36.519      31.361      25.340      20.599      17.940      16.462      15.333      14.687      14.515    
  14.666      14.963      15.266      15.485      15.569      15.485      15.266      14.963      14.666      14.515    
  14.687      15.333      16.462      17.940      20.599      25.340      31.361      36.519      72.650      68.233    
  56.755      42.503      29.973      21.816      17.940      15.966      14.515      13.653      13.233      13.058    
  13.009      13.018      13.030      13.018      13.009      13.058      13.233      13.653      14.515      15.966    
  17.940      21.816      29.973      42.503      56.755      68.233      124.45      116.85      96.843      71.195    
  47.255      29.973      20.599      16.809      14.666      13.233      12.384      11.873      11.579      11.456    
  11.430      11.456      11.579      11.873      12.384      13.233      14.666      16.809      20.599      29.973    
  47.255      71.195      96.843      116.85      188.85      177.55      147.62      108.69      71.195      42.503    
  25.340      17.888      14.963      13.058      11.873      11.100      10.625      10.419      10.376      10.419    
  10.625      11.100      11.873      13.058      14.963      17.888      25.340      42.503      71.195      108.69    
  147.62      177.55      254.33      239.35      199.61      147.62      96.843      56.755      31.361      19.405    
  15.266      13.009      11.579      10.625      10.035      9.7964      9.7558      9.7964      10.035      10.625    
  11.579      13.009      15.266      19.405      31.361      56.755      96.843      147.62      199.61      239.35    
  304.33      286.54      239.35      177.55      116.85      68.233      36.519      20.860      15.485      13.018    
  11.456      10.419      9.7964      9.5772      9.5556      9.5772      9.7964      10.419      11.456      13.018    
  15.485      20.860      36.519      68.233      116.85      177.55      239.35      286.54      270.20      254.33    
  212.21      157.09      103.15      60.344      32.956      19.851      15.347      13.020      11.549      10.575    
  9.9816      9.7558      9.7237      9.7558      9.9816      10.575      11.549      13.020      15.347      19.851    
  32.956      60.344      103.15      157.09      212.21      254.33      254.33      239.35      199.61      147.62    
  96.843      56.755      31.361      19.405      15.266      13.009      11.579      10.625      10.035      9.7964    
  9.7558      9.7964      10.035      10.625      11.579      13.009      15.266      19.405      31.361      56.755    
  96.843      147.62      199.61      239.35      212.21      199.61      166.19      122.58      80.290      47.476    
  27.361      18.346      15.041      12.996      11.700      10.832      10.280      10.035      9.9816      10.035    
  10.280      10.832      11.700      12.996      15.041      18.346      27.361      47.476      80.290      122.58    
  166.19      199.61      157.09      147.62      122.58      90.137      59.234      36.091      22.775      17.236    
  14.732      13.029      11.967      11.271      10.832      10.625      10.575      10.625      10.832      11.271    
  11.967      13.029      14.732      17.236      22.775      36.091      59.234      90.137      122.58      147.62    
  103.15      96.843      80.290      59.234      39.880      26.304      19.262      16.346      14.432      13.169    
  12.421      11.967      11.700      11.579      11.549      11.579      11.700      11.967      12.421      13.169    
  14.432      16.346      19.262      26.304      39.880      59.234      80.290      96.843      60.344      56.755    
  47.476      36.091      26.304      20.161      17.282      15.542      14.267      13.524      13.169      13.029    
  12.996      13.009      13.020      13.009      12.996      13.029      13.169      13.524      14.267      15.542    
  17.282      20.161      26.304      36.091      47.476      56.755      32.956      31.361      27.361      22.775    
  19.262      17.282      15.960      14.953      14.397      14.267      14.432      14.732      15.041      15.266    
  15.347      15.266      15.041      14.732      14.432      14.267      14.397      14.953      15.960      17.282    
  19.262      22.775      27.361      31.361      19.851      19.405      18.346      17.236      16.346      15.542    
  14.953      14.737      14.953      15.542      16.346      17.236      18.346      19.405      19.851      19.405    
  18.346      17.236      16.346      15.542      14.953      14.737      14.953      15.542      16.346      17.236    
  18.346      19.405      15.347      15.266      15.041      14.732      14.432      14.267      14.397      14.953    
  15.960      17.282      19.262      22.775      27.361      31.361      32.956      31.361      27.361      22.775    
  19.262      17.282      15.960      14.953      14.397      14.267      14.432      14.732      15.041      15.266    
  13.020      13.009      12.996      13.029      13.169      13.524      14.267      15.542      17.282      20.161    
  26.304      36.091      47.476      56.755      60.344      56.755      47.476      36.091      26.304      20.161    
  17.282      15.542      14.267      13.524      13.169      13.029      12.996      13.009      11.549      11.579    
  11.700      11.967      12.421      13.169      14.432      16.346      19.262      26.304      39.880      59.234    
  80.290      96.843      103.15      96.843      80.290      59.234      39.880      26.304      19.262      16.346    
  14.432      13.169      12.421      11.967      11.700      11.579      10.575      10.625      10.832      11.271    
  11.967      13.029      14.732      17.236      22.775      36.091      59.234      90.137      122.58      147.62    
  157.09      147.62      122.58      90.137      59.234      36.091      22.775      17.236      14.732      13.029    
  11.967      11.271      10.832      10.625      9.9816      10.035      10.280      10.832      11.700      12.996    
  15.041      18.346      27.361      47.476      80.290      122.58      166.19      199.61      212.21      199.61    
  166.19      122.58      80.290      47.476      27.361      18.346      15.041      12.996      11.700      10.832    
  10.280      10.035      9.7558      9.7964      10.035      10.625      11.579      13.009      15.266      19.405    
  31.361      56.755      96.843      147.62      199.61      239.35      254.33      239.35      199.61      147.62    
  96.843      56.755      31.361      19.405      15.266      13.009      11.579      10.625      10.035      9.7964    
  9.7237      9.7558      9.9816      10.575      11.549      13.020      15.347      19.851      32.956      60.344    
  103.15      157.09      212.21      254.33      270.20      254.33      212.21      157.09      103.15      60.344    
  32.956      19.851      15.347      13.020      11.549      10.575      9.9816      9.7558      9.7558      9.7964    
  10.035      10.625      11.579      13.009      15.266      19.405      31.361      56.755      96.843      147.62    
  199.61      239.35      254.33      239.35      199.61      147.62      96.843      56.755      31.361      19.405    
  15.266      13.009      11.579      10.625      10.035      9.7964      9.9816      10.035      10.280      10.832    
  11.700      12.996      15.041      18.346      27.361      47.476      80.290      122.58      166.19      199.61    
  212.21      199.61      166.19      122.58      80.290      47.476      27.361      18.346      15.041      12.996    
  11.700      10.832      10.280      10.035      10.575      10.625      10.832      11.271      11.967      13.029    
  14.732      17.236      22.775      36.091      59.234      90.137      122.58      147.62      157.09      147.62    
  122.58      90.137      59.234      36.091      22.775      17.236      14.732      13.029      11.967      11.271    
  10.832      10.625      11.549      11.579      11.700      11.967      12.421      13.169      14.432      16.346    
  19.262      26.304      39.880      59.234      80.290      96.843      103.15      96.843      80.290      59.234    
  39.880      26.304      19.262      16.346      14.432      13.169      12.421      11.967      11.700      11.579    
  13.020      13.009      12.996      13.029      13.169      13.524      14.267      15.542      17.282      20.161    
  26.304      36.091      47.476      56.755      60.344      56.755      47.476      36.091      26.304      20.161    
  17.282      15.542      14.267      13.524      13.169      13.029      12.996      13.009      15.347      15.266    
  15.041      14.732      14.432      14.267      14.397      14.953      15.960      17.282      19.262      22.775    
  27.361      31.361      32.956      31.361      27.361      22.775      19.262      17.282      15.960      14.953    
  14.397      14.267      14.432      14.732      15.041      15.266      19.851      19.405      18.346      17.236    
  16.346      15.542      14.953      14.737      14.953      15.542      16.346      17.236      18.346      19.405    
  19.851      19.405      18.346      17.236      16.346      15.542      14.953      14.737      14.953      15.542    
  16.346      17.236      18.346      19.405      32.956      31.361      27.361      22.775      19.262      17.282    
  15.960      14.953      14.397      14.267      14.432      14.732      15.041      15.266      15.347      15.266    
  15.041      14.732      14.432      14.267      14.397      14.953      15.960      17.282      19.262      22.775    
  27.361      31.361      60.344      56.755      47.476      36.091      26.304      20.161      17.282      15.542    
  14.267      13.524      13.169      13.029      12.996      13.009      13.020      13.009      12.996      13.029    
  13.169      13.524      14.267      15.542      17.282      20.161      26.304      36.091      47.476      56.755    
  103.15      96.843      80.290      59.234      39.880      26.304      19.262      16.346      14.432      13.169    
  12.421      11.967      11.700      11.579      11.549      11.579      11.700      11.967      12.421      13.169    
  14.432      16.346      19.262      26.304      39.880      59.234      80.290      96.843      157.09      147.62    
  122.58      90.137      59.234      36.091      22.775      17.236      14.732      13.029      11.967      11.271    
  10.832      10.625      10.575      10.625      10.832      11.271      11.967      13.029      14.732      17.236    
  22.775      36.091      59.234      90.137      122.58      147.62      212.21      199.61      166.19      122.58    
  80.290      47.476      27.361      18.346      15.041      12.996      11.700      10.832      10.280      10.035    
  9.9816      10.035      10.280      10.832      11.700      12.996      15.041      18.346      27.361      47.476    
  80.290      122.58      166.19      199.61      254.33      239.35      199.61      147.62      96.843      56.755    
  31.361      19.405      15.266      13.009      11.579      10.625      10.035      9.7964      9.7558      9.7964    
  10.035      10.625      11.579      13.009      15.266      19.405      31.361      56.755      96.843      147.62    
  199.61      239.35      200.83      188.85      157.09      115.73      75.781      45.008      26.378      18.159    
  15.048      13.074      11.848      11.055      10.575      10.376      10.338      10.376      10.575      11.055    
  11.848      13.074      15.048      18.159      26.378      45.008      75.781      115.73      157.09      188.85    
  188.85      177.55      147.62      108.69      71.195      42.503      25.340      17.888      14.963      13.058    
  11.873      11.100      10.625      10.419      10.376      10.419      10.625      11.100      11.873      13.058    
  14.963      17.888      25.340      42.503      71.195      108.69      147.62      177.55      157.09      147.62    
  122.58      90.137      59.234      36.091      22.775      17.236      14.732      13.029      11.967      11.271    
  10.832      10.625      10.575      10.625      10.832      11.271      11.967      13.029      14.732      17.236    
  22.775      36.091      59.234      90.137      122.58      147.62      115.73      108.69      90.137      66.379    
  44.264      28.410      19.922      16.483      14.422      13.028      12.170      11.618      11.271      11.100    