unknown system                          
   1.00000000000000     
     3.445083    0.000000    0.000000
     0.000000    3.445083    0.000000
     0.000000    0.000000    3.445083
   Fe
     4
Direct
  0.000000  0.000000  0.000000
  0.500000  0.500000  0.000000
  0.500000  0.000000  0.500000
  0.000000  0.500000  0.500000
 
   28   28   28
 0.34316622769E+03 0.32318424220E+03 0.27020046616E+03 0.20082950799E+03 0.13252984541E+03
 0.77378390691E+02 0.40769977337E+02 0.22143092074E+02 0.15657187647E+02 0.13043109587E+02
 0.11407014361E+02 0.10338121363E+02 0.97236566048E+01 0.95456505396E+01 0.95490058903E+01
 0.95456505396E+01 0.97236566048E+01 0.10338121363E+02 0.11407014361E+02 0.13043109587E+02
 0.15657187647E+02 0.22143092074E+02 0.40769977337E+02 0.77378390691E+02 0.13252984541E+03
 0.20082950799E+03 0.27020046616E+03 0.32318424220E+03 0.32318424220E+03 0.30433172050E+03
 0.25432737933E+03 0.18884810828E+03 0.12444946054E+03 0.72649958618E+02 0.38559432230E+02
 0.21468756521E+02 0.15568694825E+02 0.13030005681E+02 0.11429741089E+02 0.10375726950E+02
 0.97557744944E+01 0.95555536673E+01 0.95456505396E+01 0.95555536673E+01 0.97557744944E+01
 0.10375726950E+02 0.11429741089E+02 0.13030005681E+02 0.15568694825E+02 0.21468756521E+02
 0.38559432230E+02 0.72649958618E+02 0.12444946054E+03 0.18884810828E+03 0.25432737933E+03
 0.30433172050E+03 0.27020046616E+03 0.25432737933E+03 0.21220898764E+03 0.15709214565E+03
 0.10314582811E+03 0.60343602217E+02 0.32955743439E+02 0.19850678577E+02 0.15347472323E+02
 0.13020285433E+02 0.11549328664E+02 0.10574531349E+02 0.99816231801E+01 0.97557744944E+01
 0.97236566048E+01 0.97557744944E+01 0.99816231801E+01 0.10574531349E+02 0.11549328664E+02
 0.13020285433E+02 0.15347472323E+02 0.19850678577E+02 0.32955743439E+02 0.60343602217E+02
 0.10314582811E+03 0.15709214565E+03 0.21220898764E+03 0.25432737933E+03 0.20082950799E+03
 0.18884810828E+03 0.15709214565E+03 0.11572980377E+03 0.75780879399E+02 0.45008444249E+02
 0.26378036485E+02 0.18159236238E+02 0.15047863200E+02 0.13074195542E+02 0.11848173083E+02
 0.11055128338E+02 0.10574531349E+02 0.10375726950E+02 0.10338121363E+02 0.10375726950E+02
 0.10574531349E+02 0.11055128338E+02 0.11848173083E+02 0.13074195542E+02 0.15047863200E+02
 0.18159236238E+02 0.26378036485E+02 0.45008444249E+02 0.75780879399E+02 0.11572980377E+03
 0.15709214565E+03 0.18884810828E+03 0.13252984541E+03 0.12444946054E+03 0.10314582811E+03
 0.75780879399E+02 0.50120250910E+02 0.31433837917E+02 0.21149632009E+02 0.16981176374E+02
 0.14754306109E+02 0.13260302630E+02 0.12377337311E+02 0.11848173083E+02 0.11549328664E+02
 0.11429741089E+02 0.11407014361E+02 0.11429741089E+02 0.11549328664E+02 0.11848173083E+02
 0.12377337311E+02 0.13260302630E+02 0.14754306109E+02 0.16981176374E+02 0.21149632009E+02
 0.31433837917E+02 0.50120250910E+02 0.75780879399E+02 0.10314582811E+03 0.12444946054E+03
 0.77378390691E+02 0.72649958618E+02 0.60343602217E+02 0.45008444249E+02 0.31433837917E+02
 0.22491793621E+02 0.18199940467E+02 0.16123341904E+02 0.14608695290E+02 0.13703324302E+02
 0.13260302630E+02 0.13074195542E+02 0.13020285433E+02 0.13030005681E+02 0.13043109587E+02
 0.13030005681E+02 0.13020285433E+02 0.13074195542E+02 0.13260302630E+02 0.13703324302E+02
 0.14608695290E+02 0.16123341904E+02 0.18199940467E+02 0.22491793621E+02 0.31433837917E+02
 0.45008444249E+02 0.60343602217E+02 0.72649958618E+02 0.40769977337E+02 0.38559432230E+02
 0.32955743439E+02 0.26378036485E+02 0.21149632009E+02 0.18199940467E+02 0.16647499662E+02
 0.15476640297E+02 0.14797796731E+02 0.14608695290E+02 0.14754306109E+02 0.15047863200E+02
 0.15347472323E+02 0.15568694825E+02 0.15657187647E+02 0.15568694825E+02 0.15347472323E+02
 0.15047863200E+02 0.14754306109E+02 0.14608695290E+02 0.14797796731E+02 0.15476640297E+02
 0.16647499662E+02 0.18199940467E+02 0.21149632009E+02 0.26378036485E+02 0.32955743439E+02
 0.38559432230E+02 0.22143092074E+02 0.21468756521E+02 0.19850678577E+02 0.18159236238E+02
 0.16981176374E+02 0.16123341904E+02 0.15476640297E+02 0.15234507760E+02 0.15476640297E+02
 0.16123341904E+02 0.16981176374E+02 0.18159236238E+02 0.19850678577E+02 0.21468756521E+02
 0.22143092074E+02 0.21468756521E+02 0.19850678577E+02 0.18159236238E+02 0.16981176374E+02
 0.16123341904E+02 0.15476640297E+02 0.15234507760E+02 0.15476640297E+02 0.16123341904E+02
 0.16981176374E+02 0.18159236238E+02 0.19850678577E+02 0.21468756521E+02 0.15657187647E+02
 0.15568694825E+02 0.15347472323E+02 0.15047863200E+02 0.14754306109E+02 0.14608695290E+02
 0.14797796731E+02 0.15476640297E+02 0.16647499662E+02 0.18199940467E+02 0.21149632009E+02
 0.26378036485E+02 0.32955743439E+02 0.38559432230E+02 0.40769977337E+02 0.38559432230E+02
 0.32955743439E+02 0.26378036485E+02 0.21149632009E+02 0.18199940467E+02 0.16647499662E+02
 0.15476640297E+02 0.14797796731E+02 0.14608695290E+02 0.14754306109E+02 0.15047863200E+02
 0.15347472323E+02 0.15568694825E+02 0.13043109587E+02 0.13030005681E+02 0.13020285433E+02
 0.13074195542E+02 0.13260302630E+02 0.13703324302E+02 0.14608695290E+02 0.16123341904E+02
 0.18199940467E+02 0.22491793621E+02 0.31433837917E+02 0.45008444249E+02 0.60343602217E+02
 0.72649958618E+02 0.77378390691E+02 0.72649958618E+02 0.60343602217E+02 0.45008444249E+02
 0.31433837917E+02 0.22491793621E+02 0.18199940467E+02 0.16123341904E+02 0.14608695290E+02
 0.13703324302E+02 0.13260302630E+02 0.13074195542E+02 0.13020285433E+02 0.13030005681E+02
 0.11407014361E+02 0.11429741089E+02 0.11549328664E+02 0.11848173083E+02 0.12377337311E+02
 0.13260302630E+02 0.14754306109E+02 0.16981176374E+02 0.21149632009E+02 0.31433837917E+02
 0.50120250910E+02 0.75780879399E+02 0.10314582811E+03 0.12444946054E+03 0.13252984541E+03
 0.12444946054E+03 0.10314582811E+03 0.75780879399E+02 0.50120250910E+02 0.31433837917E+02
 0.21149632009E+02 0.16981176374E+02 0.14754306109E+02 0.13260302630E+02 0.12377337311E+02
 0.11848173083E+02 0.11549328664E+02 0.11429741089E+02 0.10338121363E+02 0.10375726950E+02
 0.10574531349E+02 0.11055128338E+02 0.11848173083E+02 0.13074195542E+02 0.15047863200E+02
 0.18159236238E+02 0.26378036485E+02 0.45008444249E+02 0.75780879399E+02 0.11572980377E+03
 0.15709214565E+03 0.18884810828E+03 0.20082950799E+03 0.18884810828E+03 0.15709214565E+03
 0.11572980377E+03 0.75780879399E+02 0.45008444249E+02 0.26378036485E+02 0.18159236238E+02
 0.15047863200E+02 0.13074195542E+02 0.11848173083E+02 0.11055128338E+02 0.10574531349E+02
 0.10375726950E+02 0.97236566048E+01 0.97557744944E+01 0.99816231801E+01 0.10574531349E+02
 0.11549328664E+02 0.13020285433E+02 0.15347472323E+02 0.19850678577E+02 0.32955743439E+02
 0.60343602217E+02 0.10314582811E+03 0.15709214565E+03 0.21220898764E+03 0.25432737933E+03
 0.27020046616E+03 0.25432737933E+03 0.21220898764E+03 0.15709214565E+03 0.10314582811E+03
 0.60343602217E+02 0.32955743439E+02 0.19850678577E+02 0.15347472323E+02 0.13020285433E+02
 0.11549328664E+02 0.10574531349E+02 0.99816231801E+01 0.97557744944E+01 0.95456505396E+01
 0.95555536673E+01 0.97557744944E+01 0.10375726950E+02 0.11429741089E+02 0.13030005681E+02
 0.15568694825E+02 0.21468756521E+02 0.38559432230E+02 0.72649958618E+02 0.12444946054E+03
 0.18884810828E+03 0.25432737933E+03 0.30433172050E+03 0.32318424220E+03 0.30433172050E+03
 0.25432737933E+03 0.18884810828E+03 0.12444946054E+03 0.72649958618E+02 0.38559432230E+02
 0.21468756521E+02 0.15568694825E+02 0.13030005681E+02 0.11429741089E+02 0.10375726950E+02
 0.97557744944E+01 0.95555536673E+01 0.95490058903E+01 0.95456505396E+01 0.97236566048E+01
 0.10338121363E+02 0.11407014361E+02 0.13043109587E+02 0.15657187647E+02 0.22143092074E+02
 0.40769977337E+02 0.77378390691E+02 0.13252984541E+03 0.20082950799E+03 0.27020046616E+03
 0.32318424220E+03 0.34316622769E+03 0.32318424220E+03 0.27020046616E+03 0.20082950799E+03
 0.13252984541E+03 0.77378390691E+02 0.40769977337E+02 0.22143092074E+02 0.15657187647E+02
 0.13043109587E+02 0.11407014361E+02 0.10338121363E+02 0.97236566048E+01 0.95456505396E+01
 0.95456505396E+01 0.95555536673E+01 0.97557744944E+01 0.10375726950E+02 0.11429741089E+02
 0.13030005681E+02 0.15568694825E+02 0.21468756521E+02 0.38559432230E+02 0.72649958618E+02
 0.12444946054E+03 0.18884810828E+03 0.25432737933E+03 0.30433172050E+03 0.32318424220E+03
 0.30433172050E+03 0.25432737933E+03 0.18884810828E+03 0.12444946054E+03 0.72649958618E+02
 0.38559432230E+02 0.21468756521E+02 0.15568694825E+02 0.13030005681E+02 0.11429741089E+02
 0.10375726950E+02 0.97557744944E+01 0.95555536673E+01 0.97236566048E+01 0.97557744944E+01
 0.99816231801E+01 0.10574531349E+02 0.11549328664E+02 0.13020285433E+02 0.15347472323E+02
 0.19850678577E+02 0.32955743439E+02 0.60343602217E+02 0.10314582811E+03 0.15709214565E+03
 0.21220898764E+03 0.25432737933E+03 0.27020046616E+03 0.25432737933E+03 0.21220898764E+03
 0.15709214565E+03 0.10314582811E+03 0.60343602217E+02 0.32955743439E+02 0.19850678577E+02
 0.15347472323E+02 0.13020285433E+02 0.11549328664E+02 0.10574531349E+02 0.99816231801E+01
 0.97557744944E+01 0.10338121363E+02 0.10375726950E+02 0.10574531349E+02 0.11055128338E+02
 0.11848173083E+02 0.13074195542E+02 0.15047863200E+02 0.18159236238E+02 0.26378036485E+02
 0.45008444249E+02 0.75780879399E+02 0.11572980377E+03 0.15709214565E+03 0.18884810828E+03
 0.20082950799E+03 0.18884810828E+03 0.15709214565E+03 0.11572980377E+03 0.75780879399E+02
 0.45008444249E+02 0.26378036485E+02 0.18159236238E+02 0.15047863200E+02 0.13074195542E+02
 0.11848173083E+02 0.11055128338E+02 0.10574531349E+02 0.10375726950E+02 0.11407014361E+02
 0.11429741089E+02 0.11549328664E+02 0.11848173083E+02 0.12377337311E+02 0.13260302630E+02
 0.14754306109E+02 0.16981176374E+02 0.21149632009E+02 0.31433837917E+02 0.50120250910E+02
 0.75780879399E+02 0.10314582811E+03 0.12444946054E+03 0.13252984541E+03 0.12444946054E+03
 0.10314582811E+03 0.75780879399E+02 0.50120250910E+02 0.31433837917E+02 0.21149632009E+02
 0.16981176374E+02 0.14754306109E+02 0.13260302630E+02 0.12377337311E+02 0.11848173083E+02
 0.11549328664E+02 0.11429741089E+02 0.13043109587E+02 0.13030005681E+02 0.13020285433E+02
 0.13074195542E+02 0.13260302630E+02 0.13703324302E+02 0.14608695290E+02 0.16123341904E+02
 0.18199940467E+02 0.22491793621E+02 0.31433837917E+02 0.45008444249E+02 0.60343602217E+02
 0.72649958618E+02 0.77378390691E+02 0.72649958618E+02 0.60343602217E+02 0.45008444249E+02
 0.31433837917E+02 0.22491793621E+02 0.18199940467E+02 0.16123341904E+02 0.14608695290E+02
 0.13703324302E+02 0.13260302630E+02 0.13074195542E+02 0.13020285433E+02 0.13030005681E+02
 0.15657187647E+02 0.15568694825E+02 0.15347472323E+02 0.15047863200E+02 0.14754306109E+02
 0.14608695290E+02 0.14797796731E+02 0.15476640297E+02 0.16647499662E+02 0.18199940467E+02
 0.21149632009E+02 0.26378036485E+02 0.32955743439E+02 0.38559432230E+02 0.40769977337E+02
 0.38559432230E+02 0.32955743439E+02 0.26378036485E+02 0.21149632009E+02 0.18199940467E+02
 0.16647499662E+02 0.15476640297E+02 0.14797796731E+02 0.14608695290E+02 0.14754306109E+02
 0.15047863200E+02 0.15347472323E+02 0.15568694825E+02 0.22143092074E+02 0.21468756521E+02
 0.19850678577E+02 0.18159236238E+02 0.16981176374E+02 0.16123341904E+02 0.15476640297E+02
 0.15234507760E+02 0.15476640297E+02 0.16123341904E+02 0.16981176374E+02 0.18159236238E+02
 0.19850678577E+02 0.21468756521E+02 0.22143092074E+02 0.21468756521E+02 0.19850678577E+02
 0.18159236238E+02 0.16981176374E+02 0.16123341904E+02 0.15476640297E+02 0.15234507760E+02
 0.15476640297E+02 0.16123341904E+02 0.16981176374E+02 0.18159236238E+02 0.19850678577E+02
 0.21468756521E+02 0.40769977337E+02 0.38559432230E+02 0.32955743439E+02 0.26378036485E+02
 0.21149632009E+02 0.18199940467E+02 0.16647499662E+02 0.15476640297E+02 0.14797796731E+02
 0.14608695290E+02 0.14754306109E+02 0.15047863200E+02 0.15347472323E+02 0.15568694825E+02
 0.15657187647E+02 0.15568694825E+02 0.15347472323E+02 0.15047863200E+02 0.14754306109E+02
 0.14608695290E+02 0.14797796731E+02 0.15476640297E+02 0.16647499662E+02 0.18199940467E+02
 0.21149632009E+02 0.26378036485E+02 0.32955743439E+02 0.38559432230E+02 0.77378390691E+02
 0.72649958618E+02 0.60343602217E+02 0.45008444249E+02 0.31433837917E+02 0.22491793621E+02
 0.18199940467E+02 0.16123341904E+02 0.14608695290E+02 0.13703324302E+02 0.13260302630E+02
 0.13074195542E+02 0.13020285433E+02 0.13030005681E+02 0.13043109587E+02 0.13030005681E+02
 0.13020285433E+02 0.13074195542E+02 0.13260302630E+02 0.13703324302E+02 0.14608695290E+02
 0.16123341904E+02 0.18199940467E+02 0.22491793621E+02 0.31433837917E+02 0.45008444249E+02
 0.60343602217E+02 0.72649958618E+02 0.13252984541E+03 0.12444946054E+03 0.10314582811E+03
 0.75780879399E+02 0.50120250910E+02 0.31433837917E+02 0.21149632009E+02 0.16981176374E+02
 0.14754306109E+02 0.13260302630E+02 0.12377337311E+02 0.11848173083E+02 0.11549328664E+02
 0.11429741089E+02 0.11407014361E+02 0.11429741089E+02 0.11549328664E+02 0.11848173083E+02
 0.12377337311E+02 0.13260302630E+02 0.14754306109E+02 0.16981176374E+02 0.21149632009E+02
 0.31433837917E+02 0.50120250910E+02 0.75780879399E+02 0.10314582811E+03 0.12444946054E+03
 0.20082950799E+03 0.18884810828E+03 0.15709214565E+03 0.11572980377E+03 0.75780879399E+02
 0.45008444249E+02 0.26378036485E+02 0.18159236238E+02 0.15047863200E+02 0.13074195542E+02
 0.11848173083E+02 0.11055128338E+02 0.10574531349E+02 0.10375726950E+02 0.10338121363E+02
 0.10375726950E+02 0.10574531349E+02 0.11055128338E+02 0.11848173083E+02 0.13074195542E+02
 0.15047863200E+02 0.18159236238E+02 0.26378036485E+02 0.45008444249E+02 0.75780879399E+02
 0.11572980377E+03 0.15709214565E+03 0.18884810828E+03 0.27020046616E+03 0.25432737933E+03
 0.21220898764E+03 0.15709214565E+03 0.10314582811E+03 0.60343602217E+02 0.32955743439E+02
 0.19850678577E+02 0.15347472323E+02 0.13020285433E+02 0.11549328664E+02 0.10574531349E+02
 0.99816231801E+01 0.97557744944E+01 0.97236566048E+01 0.97557744944E+01 0.99816231801E+01
 0.10574531349E+02 0.11549328664E+02 0.13020285433E+02 0.15347472323E+02 0.19850678577E+02
 0.32955743439E+02 0.60343602217E+02 0.10314582811E+03 0.15709214565E+03 0.21220898764E+03
 0.25432737933E+03 0.32318424220E+03 0.30433172050E+03 0.25432737933E+03 0.18884810828E+03
 0.12444946054E+03 0.72649958618E+02 0.38559432230E+02 0.21468756521E+02 0.15568694825E+02
 0.13030005681E+02 0.11429741089E+02 0.10375726950E+02 0.97557744944E+01 0.95555536673E+01
 0.95456505396E+01 0.95555536673E+01 0.97557744944E+01 0.10375726950E+02 0.11429741089E+02
 0.13030005681E+02 0.15568694825E+02 0.21468756521E+02 0.38559432230E+02 0.72649958618E+02
 0.12444946054E+03 0.18884810828E+03 0.25432737933E+03 0.30433172050E+03 0.32318424220E+03
 0.30433172050E+03 0.25432737933E+03 0.18884810828E+03 0.12444946054E+03 0.72649958618E+02
 0.38559432230E+02 0.21468756521E+02 0.15568694825E+02 0.13030005681E+02 0.11429741089E+02
 0.10375726950E+02 0.97557744944E+01 0.95555536673E+01 0.95456505396E+01 0.95555536673E+01
 0.97557744944E+01 0.10375726950E+02 0.11429741089E+02 0.13030005681E+02 0.15568694825E+02
 0.21468756521E+02 0.38559432230E+02 0.72649958618E+02 0.12444946054E+03 0.18884810828E+03
 0.25432737933E+03 0.30433172050E+03 0.30433172050E+03 0.28654321638E+03 0.23934995348E+03
 0.17755218804E+03 0.11685321451E+03 0.68233098318E+02 0.36519428778E+02 0.20860358738E+02
 0.15485009857E+02 0.13017951455E+02 0.11455586206E+02 0.10418856650E+02 0.97964095341E+01
 0.95772049879E+01 0.95555536673E+01 0.95772049879E+01 0.97964095341E+01 0.10418856650E+02
 0.11455586206E+02 0.13017951455E+02 0.15485009857E+02 0.20860358738E+02 0.36519428778E+02
 0.68233098318E+02 0.11685321451E+03 0.17755218804E+03 0.23934995348E+03 0.28654321638E+03
 0.25432737933E+03 0.23934995348E+03 0.19960753870E+03 0.14762345443E+03 0.96842855349E+02
 0.56754922856E+02 0.31361002250E+02 0.19404995581E+02 0.15265509669E+02 0.13008797677E+02
 0.11578786081E+02 0.10624914290E+02 0.10034731949E+02 0.97964095341E+01 0.97557744944E+01
 0.97964095341E+01 0.10034731949E+02 0.10624914290E+02 0.11578786081E+02 0.13008797677E+02
 0.15265509669E+02 0.19404995581E+02 0.31361002250E+02 0.56754922856E+02 0.96842855349E+02
 0.14762345443E+03 0.19960753870E+03 0.23934995348E+03 0.18884810828E+03 0.17755218804E+03
 0.14762345443E+03 0.10868696163E+03 0.71194993700E+02 0.42502671777E+02 0.25340035450E+02
 0.17888426929E+02 0.14962895362E+02 0.13058478396E+02 0.11872554482E+02 0.11100410147E+02
 0.10624914290E+02 0.10418856650E+02 0.10375726950E+02 0.10418856650E+02 0.10624914290E+02
 0.11100410147E+02 0.11872554482E+02 0.13058478396E+02 0.14962895362E+02 0.17888426929E+02
 0.25340035450E+02 0.42502671777E+02 0.71194993700E+02 0.10868696163E+03 0.14762345443E+03
 0.17755218804E+03 0.12444946054E+03 0.11685321451E+03 0.96842855349E+02 0.71194993700E+02
 0.47254502943E+02 0.29972872471E+02 0.20599227440E+02 0.16809239736E+02 0.14666494030E+02
 0.13233011570E+02 0.12384293364E+02 0.11872554482E+02 0.11578786081E+02 0.11455586206E+02
 0.11429741089E+02 0.11455586206E+02 0.11578786081E+02 0.11872554482E+02 0.12384293364E+02
 0.13233011570E+02 0.14666494030E+02 0.16809239736E+02 0.20599227440E+02 0.29972872471E+02
 0.47254502943E+02 0.71194993700E+02 0.96842855349E+02 0.11685321451E+03 0.72649958618E+02
 0.68233098318E+02 0.56754922856E+02 0.42502671777E+02 0.29972872471E+02 0.21815604626E+02
 0.17939950189E+02 0.15965883689E+02 0.14514907293E+02 0.13652748728E+02 0.13233011570E+02
 0.13058478396E+02 0.13008797677E+02 0.13017951455E+02 0.13030005681E+02 0.13017951455E+02
 0.13008797677E+02 0.13058478396E+02 0.13233011570E+02 0.13652748728E+02 0.14514907293E+02
 0.15965883689E+02 0.17939950189E+02 0.21815604626E+02 0.29972872471E+02 0.42502671777E+02
 0.56754922856E+02 0.68233098318E+02 0.38559432230E+02 0.36519428778E+02 0.31361002250E+02
 0.25340035450E+02 0.20599227440E+02 0.17939950189E+02 0.16461533232E+02 0.15333220163E+02
 0.14687261229E+02 0.14514907293E+02 0.14666494030E+02 0.14962895362E+02 0.15265509669E+02
 0.15485009857E+02 0.15568694825E+02 0.15485009857E+02 0.15265509669E+02 0.14962895362E+02
 0.14666494030E+02 0.14514907293E+02 0.14687261229E+02 0.15333220163E+02 0.16461533232E+02
 0.17939950189E+02 0.20599227440E+02 0.25340035450E+02 0.31361002250E+02 0.36519428778E+02
 0.21468756521E+02 0.20860358738E+02 0.19404995581E+02 0.17888426929E+02 0.16809239736E+02
 0.15965883689E+02 0.15333220163E+02 0.15097495913E+02 0.15333220163E+02 0.15965883689E+02
 0.16809239736E+02 0.17888426929E+02 0.19404995581E+02 0.20860358738E+02 0.21468756521E+02
 0.20860358738E+02 0.19404995581E+02 0.17888426929E+02 0.16809239736E+02 0.15965883689E+02
 0.15333220163E+02 0.15097495913E+02 0.15333220163E+02 0.15965883689E+02 0.16809239736E+02
 0.17888426929E+02 0.19404995581E+02 0.20860358738E+02 0.15568694825E+02 0.15485009857E+02
 0.15265509669E+02 0.14962895362E+02 0.14666494030E+02 0.14514907293E+02 0.14687261229E+02
 0.15333220163E+02 0.16461533232E+02 0.17939950189E+02 0.20599227440E+02 0.25340035450E+02
 0.31361002250E+02 0.36519428778E+02 0.38559432230E+02 0.36519428778E+02 0.31361002250E+02
 0.25340035450E+02 0.20599227440E+02 0.17939950189E+02 0.16461533232E+02 0.15333220163E+02
 0.14687261229E+02 0.14514907293E+02 0.14666494030E+02 0.14962895362E+02 0.15265509669E+02
 0.15485009857E+02 0.13030005681E+02 0.13017951455E+02 0.13008797677E+02 0.13058478396E+02
 0.13233011570E+02 0.13652748728E+02 0.14514907293E+02 0.15965883689E+02 0.17939950189E+02
 0.21815604626E+02 0.29972872471E+02 0.42502671777E+02 0.56754922856E+02 0.68233098318E+02
 0.72649958618E+02 0.68233098318E+02 0.56754922856E+02 0.42502671777E+02 0.29972872471E+02
 0.21815604626E+02 0.17939950189E+02 0.15965883689E+02 0.14514907293E+02 0.13652748728E+02
 0.13233011570E+02 0.13058478396E+02 0.13008797677E+02 0.13017951455E+02 0.11429741089E+02
 0.11455586206E+02 0.11578786081E+02 0.11872554482E+02 0.12384293364E+02 0.13233011570E+02
 0.14666494030E+02 0.16809239736E+02 0.20599227440E+02 0.29972872471E+02 0.47254502943E+02
 0.71194993700E+02 0.96842855349E+02 0.11685321451E+03 0.12444946054E+03 0.11685321451E+03
 0.96842855349E+02 0.71194993700E+02 0.47254502943E+02 0.29972872471E+02 0.20599227440E+02
 0.16809239736E+02 0.14666494030E+02 0.13233011570E+02 0.12384293364E+02 0.11872554482E+02
 0.11578786081E+02 0.11455586206E+02 0.10375726950E+02 0.10418856650E+02 0.10624914290E+02
 0.11100410147E+02 0.11872554482E+02 0.13058478396E+02 0.14962895362E+02 0.17888426929E+02
 0.25340035450E+02 0.42502671777E+02 0.71194993700E+02 0.10868696163E+03 0.14762345443E+03
 0.17755218804E+03 0.18884810828E+03 0.17755218804E+03 0.14762345443E+03 0.10868696163E+03
 0.71194993700E+02 0.42502671777E+02 0.25340035450E+02 0.17888426929E+02 0.14962895362E+02
 0.13058478396E+02 0.11872554482E+02 0.11100410147E+02 0.10624914290E+02 0.10418856650E+02
 0.97557744944E+01 0.97964095341E+01 0.10034731949E+02 0.10624914290E+02 0.11578786081E+02
 0.13008797677E+02 0.15265509669E+02 0.19404995581E+02 0.31361002250E+02 0.56754922856E+02
 0.96842855349E+02 0.14762345443E+03 0.19960753870E+03 0.23934995348E+03 0.25432737933E+03
 0.23934995348E+03 0.19960753870E+03 0.14762345443E+03 0.96842855349E+02 0.56754922856E+02
 0.31361002250E+02 0.19404995581E+02 0.15265509669E+02 0.13008797677E+02 0.11578786081E+02
 0.10624914290E+02 0.10034731949E+02 0.97964095341E+01 0.95555536673E+01 0.95772049879E+01
 0.97964095341E+01 0.10418856650E+02 0.11455586206E+02 0.13017951455E+02 0.15485009857E+02
 0.20860358738E+02 0.36519428778E+02 0.68233098318E+02 0.11685321451E+03 0.17755218804E+03
 0.23934995348E+03 0.28654321638E+03 0.30433172050E+03 0.28654321638E+03 0.23934995348E+03
 0.17755218804E+03 0.11685321451E+03 0.68233098318E+02 0.36519428778E+02 0.20860358738E+02
 0.15485009857E+02 0.13017951455E+02 0.11455586206E+02 0.10418856650E+02 0.97964095341E+01
 0.95772049879E+01 0.95456505396E+01 0.95555536673E+01 0.97557744944E+01 0.10375726950E+02
 0.11429741089E+02 0.13030005681E+02 0.15568694825E+02 0.21468756521E+02 0.38559432230E+02
 0.72649958618E+02 0.12444946054E+03 0.18884810828E+03 0.25432737933E+03 0.30433172050E+03
 0.32318424220E+03 0.30433172050E+03 0.25432737933E+03 0.18884810828E+03 0.12444946054E+03
 0.72649958618E+02 0.38559432230E+02 0.21468756521E+02 0.15568694825E+02 0.13030005681E+02
 0.11429741089E+02 0.10375726950E+02 0.97557744944E+01 0.95555536673E+01 0.95555536673E+01
 0.95772049879E+01 0.97964095341E+01 0.10418856650E+02 0.11455586206E+02 0.13017951455E+02
 0.15485009857E+02 0.20860358738E+02 0.36519428778E+02 0.68233098318E+02 0.11685321451E+03
 0.17755218804E+03 0.23934995348E+03 0.28654321638E+03 0.30433172050E+03 0.28654321638E+03
 0.23934995348E+03 0.17755218804E+03 0.11685321451E+03 0.68233098318E+02 0.36519428778E+02
 0.20860358738E+02 0.15485009857E+02 0.13017951455E+02 0.11455586206E+02 0.10418856650E+02
 0.97964095341E+01 0.95772049879E+01 0.97557744944E+01 0.97964095341E+01 0.10034731949E+02
 0.10624914290E+02 0.11578786081E+02 0.13008797677E+02 0.15265509669E+02 0.19404995581E+02
 0.31361002250E+02 0.56754922856E+02 0.96842855349E+02 0.14762345443E+03 0.19960753870E+03
 0.23934995348E+03 0.25432737933E+03 0.23934995348E+03 0.19960753870E+03 0.14762345443E+03
 0.96842855349E+02 0.56754922856E+02 0.31361002250E+02 0.19404995581E+02 0.15265509669E+02
 0.13008797677E+02 0.11578786081E+02 0.10624914290E+02 0.10034731949E+02 0.97964095341E+01
 0.10375726950E+02 0.10418856650E+02 0.10624914290E+02 0.11100410147E+02 0.11872554482E+02
 0.13058478396E+02 0.14962895362E+02 0.17888426929E+02 0.25340035450E+02 0.42502671777E+02
 0.71194993700E+02 0.10868696163E+03 0.14762345443E+03 0.17755218804E+03 0.18884810828E+03
 0.17755218804E+03 0.14762345443E+03 0.10868696163E+03 0.71194993700E+02 0.42502671777E+02
 0.25340035450E+02 0.17888426929E+02 0.14962895362E+02 0.13058478396E+02 0.11872554482E+02
 0.11100410147E+02 0.10624914290E+02 0.10418856650E+02 0.11429741089E+02 0.11455586206E+02
 0.11578786081E+02 0.11872554482E+02 0.12384293364E+02 0.13233011570E+02 0.14666494030E+02
 0.16809239736E+02 0.20599227440E+02 0.29972872471E+02 0.47254502943E+02 0.71194993700E+02
 0.96842855349E+02 0.11685321451E+03 0.12444946054E+03 0.11685321451E+03 0.96842855349E+02
 0.71194993700E+02 0.47254502943E+02 0.29972872471E+02 0.20599227440E+02 0.16809239736E+02
 0.14666494030E+02 0.13233011570E+02 0.12384293364E+02 0.11872554482E+02 0.11578786081E+02
 0.11455586206E+02 0.13030005681E+02 0.13017951455E+02 0.13008797677E+02 0.13058478396E+02
 0.13233011570E+02 0.13652748728E+02 0.14514907293E+02 0.15965883689E+02 0.17939950189E+02
 0.21815604626E+02 0.29972872471E+02 0.42502671777E+02 0.56754922856E+02 0.68233098318E+02
 0.72649958618E+02 0.68233098318E+02 0.56754922856E+02 0.42502671777E+02 0.29972872471E+02
 0.21815604626E+02 0.17939950189E+02 0.15965883689E+02 0.14514907293E+02 0.13652748728E+02
 0.13233011570E+02 0.13058478396E+02 0.13008797677E+02 0.13017951455E+02 0.15568694825E+02
 0.15485009857E+02 0.15265509669E+02 0.14962895362E+02 0.14666494030E+02 0.14514907293E+02
 0.14687261229E+02 0.15333220163E+02 0.16461533232E+02 0.17939950189E+02 0.20599227440E+02
 0.25340035450E+02 0.31361002250E+02 0.36519428778E+02 0.38559432230E+02 0.36519428778E+02
 0.31361002250E+02 0.25340035450E+02 0.20599227440E+02 0.17939950189E+02 0.16461533232E+02
 0.15333220163E+02 0.14687261229E+02 0.14514907293E+02 0.14666494030E+02 0.14962895362E+02
 0.15265509669E+02 0.15485009857E+02 0.21468756521E+02 0.20860358738E+02 0.19404995581E+02
 0.17888426929E+02 0.16809239736E+02 0.15965883689E+02 0.15333220163E+02 0.15097495913E+02
 0.15333220163E+02 0.15965883689E+02 0.16809239736E+02 0.17888426929E+02 0.19404995581E+02
 0.20860358738E+02 0.21468756521E+02 0.20860358738E+02 0.19404995581E+02 0.17888426929E+02
 0.16809239736E+02 0.15965883689E+02 0.15333220163E+02 0.15097495913E+02 0.15333220163E+02
 0.15965883689E+02 0.16809239736E+02 0.17888426929E+02 0.19404995581E+02 0.20860358738E+02
 0.38559432230E+02 0.36519428778E+02 0.31361002250E+02 0.25340035450E+02 0.20599227440E+02
 0.17939950189E+02 0.16461533232E+02 0.15333220163E+02 0.14687261229E+02 0.14514907293E+02
 0.14666494030E+02 0.14962895362E+02 0.15265509669E+02 0.15485009857E+02 0.15568694825E+02
 0.15485009857E+02 0.15265509669E+02 0.14962895362E+02 0.14666494030E+02 0.14514907293E+02
 0.14687261229E+02 0.15333220163E+02 0.16461533232E+02 0.17939950189E+02 0.20599227440E+02
 0.25340035450E+02 0.31361002250E+02 0.36519428778E+02 0.72649958618E+02 0.68233098318E+02
 0.56754922856E+02 0.42502671777E+02 0.29972872471E+02 0.21815604626E+02 0.17939950189E+02
 0.15965883689E+02 0.14514907293E+02 0.13652748728E+02 0.13233011570E+02 0.13058478396E+02
 0.13008797677E+02 0.13017951455E+02 0.13030005681E+02 0.13017951455E+02 0.13008797677E+02
 0.13058478396E+02 0.13233011570E+02 0.13652748728E+02 0.14514907293E+02 0.15965883689E+02
 0.17939950189E+02 0.21815604626E+02 0.29972872471E+02 0.42502671777E+02 0.56754922856E+02
 0.68233098318E+02 0.12444946054E+03 0.11685321451E+03 0.96842855349E+02 0.71194993700E+02
 0.47254502943E+02 0.29972872471E+02 0.20599227440E+02 0.16809239736E+02 0.14666494030E+02
 0.13233011570E+02 0.12384293364E+02 0.11872554482E+02 0.11578786081E+02 0.11455586206E+02
 0.11429741089E+02 0.11455586206E+02 0.11578786081E+02 0.11872554482E+02 0.12384293364E+02
 0.13233011570E+02 0.14666494030E+02 0.16809239736E+02 0.20599227440E+02 0.29972872471E+02
 0.47254502943E+02 0.71194993700E+02 0.96842855349E+02 0.11685321451E+03 0.18884810828E+03
 0.17755218804E+03 0.14762345443E+03 0.10868696163E+03 0.71194993700E+02 0.42502671777E+02
 0.25340035450E+02 0.17888426929E+02 0.14962895362E+02 0.13058478396E+02 0.11872554482E+02
 0.11100410147E+02 0.10624914290E+02 0.10418856650E+02 0.10375726950E+02 0.10418856650E+02
 0.10624914290E+02 0.11100410147E+02 0.11872554482E+02 0.13058478396E+02 0.14962895362E+02
 0.17888426929E+02 0.25340035450E+02 0.42502671777E+02 0.71194993700E+02 0.10868696163E+03
 0.14762345443E+03 0.17755218804E+03 0.25432737933E+03 0.23934995348E+03 0.19960753870E+03
 0.14762345443E+03 0.96842855349E+02 0.56754922856E+02 0.31361002250E+02 0.19404995581E+02
 0.15265509669E+02 0.13008797677E+02 0.11578786081E+02 0.10624914290E+02 0.10034731949E+02
 0.97964095341E+01 0.97557744944E+01 0.97964095341E+01 0.10034731949E+02 0.10624914290E+02
 0.11578786081E+02 0.13008797677E+02 0.15265509669E+02 0.19404995581E+02 0.31361002250E+02
 0.56754922856E+02 0.96842855349E+02 0.14762345443E+03 0.19960753870E+03 0.23934995348E+03
 0.30433172050E+03 0.28654321638E+03 0.23934995348E+03 0.17755218804E+03 0.11685321451E+03
 0.68233098318E+02 0.36519428778E+02 0.20860358738E+02 0.15485009857E+02 0.13017951455E+02
 0.11455586206E+02 0.10418856650E+02 0.97964095341E+01 0.95772049879E+01 0.95555536673E+01
 0.95772049879E+01 0.97964095341E+01 0.10418856650E+02 0.11455586206E+02 0.13017951455E+02
 0.15485009857E+02 0.20860358738E+02 0.36519428778E+02 0.68233098318E+02 0.11685321451E+03
 0.17755218804E+03 0.23934995348E+03 0.28654321638E+03 0.27020046616E+03 0.25432737933E+03
 0.21220898764E+03 0.15709214565E+03 0.10314582811E+03 0.60343602217E+02 0.32955743439E+02
 0.19850678577E+02 0.15347472323E+02 0.13020285433E+02 0.11549328664E+02 0.10574531349E+02
 0.99816231801E+01 0.97557744944E+01 0.97236566048E+01 0.97557744944E+01 0.99816231801E+01
 0.10574531349E+02 0.11549328664E+02 0.13020285433E+02 0.15347472323E+02 0.19850678577E+02
 0.32955743439E+02 0.60343602217E+02 0.10314582811E+03 0.15709214565E+03 0.21220898764E+03
 0.25432737933E+03 0.25432737933E+03 0.23934995348E+03 0.19960753870E+03 0.14762345443E+03
 0.96842855349E+02 0.56754922856E+02 0.31361002250E+02 0.19404995581E+02 0.15265509669E+02
 0.13008797677E+02 0.11578786081E+02 0.10624914290E+02 0.10034731949E+02 0.97964095341E+01
 0.97557744944E+01 0.97964095341E+01 0.10034731949E+02 0.10624914290E+02 0.11578786081E+02
 0.13008797677E+02 0.15265509669E+02 0.19404995581E+02 0.31361002250E+02 0.56754922856E+02
 0.96842855349E+02 0.14762345443E+03 0.19960753870E+03 0.23934995348E+03 0.21220898764E+03