   4   4   0   0
  0.1022208E+02  0.3445083E-09  0.3445083E-09  0.3445083E-09  0.5000000E-15
  1.000000000000000E-004
  CAR 
 unknown system                          
     38.09192496     -4.02713720  301      6.81198282      1.00000000
     -4.027  0.0000E+00  0.0000E+00
     -3.887  0.0000E+00  0.0000E+00
     -3.746 -0.2242E-32 -0.3148E-33
     -3.606 -0.2193E-27 -0.3078E-28
     -3.466 -0.7939E-23 -0.1115E-23
     -3.325 -0.1063E-18 -0.1492E-19
     -3.185 -0.5120E-15 -0.7190E-16
     -3.044 -0.9161E-12 -0.1287E-12
     -2.904 -0.6003E-09 -0.8441E-10
     -2.764 -0.1416E-06 -0.1996E-07
     -2.623 -0.1175E-04 -0.1669E-05
     -2.483 -0.3236E-03 -0.4710E-04
     -2.342 -0.2419E-02 -0.3867E-03
     -2.202  0.1993E-02 -0.1069E-03
     -2.062  0.4133E-01  0.5696E-02
     -1.921  0.5838E-01  0.1389E-01
     -1.781  0.2493E-02  0.1424E-01
     -1.640  0.9219E-02  0.1554E-01
     -1.500  0.2475E+00  0.5029E-01
     -1.360  0.3554E+00  0.1002E+00
     -1.219  0.6734E-01  0.1096E+00
     -1.079  0.5926E-01  0.1180E+00
     -0.938  0.5938E+00  0.2013E+00
     -0.798  0.6439E+00  0.2917E+00
     -0.658  0.1028E+00  0.3062E+00
     -0.517  0.1675E+00  0.3297E+00
     -0.377  0.4929E+00  0.3989E+00
     -0.236  0.2381E+00  0.4323E+00
     -0.096  0.3855E-01  0.4377E+00
      0.044  0.2895E+00  0.4784E+00
      0.185  0.2635E+00  0.5154E+00
      0.325  0.7066E-01  0.5253E+00
      0.466  0.8782E+00  0.6486E+00
      0.606  0.1402E+01  0.8455E+00
      0.746  0.8004E+00  0.9578E+00
      0.887  0.1327E+01  0.1144E+01
      1.027  0.1065E+01  0.1294E+01
      1.168  0.8689E-01  0.1306E+01
      1.308 -0.1065E+00  0.1291E+01
      1.448 -0.1318E+00  0.1272E+01
      1.589  0.6189E+00  0.1359E+01
      1.729  0.2526E+01  0.1714E+01
      1.870  0.2523E+01  0.2068E+01
      2.010  0.1806E+01  0.2322E+01
      2.150  0.3184E+01  0.2769E+01
      2.291  0.4881E+01  0.3454E+01
      2.431  0.3826E+01  0.3991E+01
      2.572  0.4271E+01  0.4591E+01
      2.712  0.4579E+01  0.5234E+01
      2.852  0.3424E+01  0.5715E+01
      2.993  0.5626E+01  0.6505E+01
      3.133  0.8244E+01  0.7662E+01
      3.274  0.7714E+01  0.8745E+01
      3.414  0.3299E+01  0.9208E+01
      3.554  0.4087E+01  0.9782E+01
      3.695  0.7978E+01  0.1090E+02
      3.835  0.6377E+01  0.1180E+02
      3.975  0.3041E+01  0.1222E+02
      4.116  0.2621E+01  0.1259E+02
      4.256  0.5144E+01  0.1331E+02
      4.397  0.7717E+01  0.1440E+02
      4.537  0.6197E+01  0.1527E+02
      4.677  0.4418E+01  0.1589E+02
      4.818  0.9125E+01  0.1717E+02
      4.958  0.1071E+02  0.1867E+02
      5.099  0.7539E+01  0.1973E+02
      5.239  0.7213E+01  0.2074E+02
      5.379  0.8101E+01  0.2188E+02
      5.520  0.8217E+01  0.2304E+02
      5.660  0.6023E+01  0.2388E+02
      5.801  0.6356E+01  0.2477E+02
      5.941  0.7975E+01  0.2589E+02
      6.081  0.7980E+01  0.2701E+02
      6.222  0.6703E+01  0.2795E+02
      6.362  0.7489E+01  0.2901E+02
      6.503  0.5497E+01  0.2978E+02
      6.643  0.4125E+01  0.3036E+02
      6.783  0.9213E+01  0.3165E+02
      6.924  0.1184E+02  0.3331E+02
      7.064  0.6302E+01  0.3420E+02
      7.205  0.2807E+01  0.3459E+02
      7.345  0.4873E+01  0.3528E+02
      7.485  0.7470E+01  0.3632E+02
      7.626  0.9877E+01  0.3771E+02
      7.766  0.1282E+02  0.3951E+02
      7.907  0.9349E+01  0.4082E+02
      8.047  0.5007E+01  0.4153E+02
      8.187  0.4834E+01  0.4221E+02
      8.328  0.4072E+01  0.4278E+02
      8.468  0.1485E+01  0.4299E+02
      8.609 -0.6927E-01  0.4298E+02
      8.749 -0.1426E+00  0.4296E+02
      8.889 -0.5142E-01  0.4295E+02
      9.030  0.6709E+00  0.4304E+02
      9.170  0.1446E+01  0.4325E+02
      9.311  0.5759E+00  0.4333E+02
      9.451  0.1103E+01  0.4348E+02
      9.591  0.3361E+01  0.4395E+02
      9.732  0.2940E+01  0.4437E+02
      9.872  0.9319E+00  0.4450E+02
     10.013  0.6374E+00  0.4459E+02
     10.153  0.1629E+01  0.4481E+02
     10.293  0.8798E+00  0.4494E+02
     10.434 -0.2126E-01  0.4494E+02
     10.574 -0.9477E-01  0.4492E+02
     10.715 -0.4492E-01  0.4492E+02
     10.855  0.6607E+00  0.4501E+02
     10.995  0.1583E+01  0.4523E+02
     11.136  0.1692E+01  0.4547E+02
     11.276  0.1372E+01  0.4566E+02
     11.417  0.2986E+00  0.4570E+02
     11.557  0.1153E+00  0.4572E+02
     11.697  0.6720E+00  0.4581E+02
     11.838  0.7541E+00  0.4592E+02
     11.978  0.6742E+00  0.4601E+02
     12.119  0.3468E+00  0.4606E+02
     12.259  0.1619E+01  0.4629E+02
     12.399  0.4013E+01  0.4685E+02
     12.540  0.2669E+01  0.4723E+02
     12.680  0.2058E+00  0.4726E+02
     12.820 -0.1811E+00  0.4723E+02
     12.961 -0.2492E-01  0.4723E+02
     13.101  0.4252E+00  0.4729E+02
     13.242  0.7492E+00  0.4739E+02
     13.382  0.2667E+00  0.4743E+02
     13.522 -0.2997E-01  0.4743E+02
     13.663 -0.1593E-01  0.4742E+02
     13.803 -0.1219E-02  0.4742E+02
     13.944 -0.7070E-04  0.4742E+02
     14.084 -0.1958E-02  0.4742E+02
     14.224 -0.2822E-01  0.4742E+02
     14.365 -0.7333E-01  0.4741E+02
     14.505  0.4250E+00  0.4747E+02
     14.646  0.1555E+01  0.4769E+02
     14.786  0.1544E+01  0.4790E+02
     14.926  0.6725E+00  0.4800E+02
     15.067  0.2600E-01  0.4800E+02
     15.207 -0.1189E+00  0.4799E+02
     15.348  0.4033E+00  0.4804E+02
     15.488  0.1561E+01  0.4826E+02
     15.628  0.2657E+01  0.4863E+02
     15.769  0.3067E+01  0.4907E+02
     15.909  0.2981E+01  0.4948E+02
     16.050  0.2674E+01  0.4986E+02
     16.190  0.6288E+00  0.4995E+02
     16.330 -0.1491E+00  0.4993E+02
     16.471 -0.4391E-01  0.4992E+02
     16.611 -0.7435E-02  0.4992E+02
     16.752 -0.2382E-01  0.4992E+02
     16.892  0.6089E-01  0.4992E+02
     17.032  0.3814E+00  0.4998E+02
     17.173  0.3026E+00  0.5002E+02
     17.313  0.5226E+00  0.5009E+02
     17.454  0.2610E+01  0.5046E+02
     17.594  0.3172E+01  0.5091E+02
     17.734  0.1145E+01  0.5107E+02
     17.875  0.1016E+01  0.5121E+02
     18.015  0.1098E+01  0.5136E+02
     18.156  0.1868E+00  0.5139E+02
     18.296 -0.6193E-01  0.5138E+02
     18.436  0.1220E+01  0.5155E+02
     18.577  0.3165E+01  0.5200E+02
     18.717  0.3167E+01  0.5244E+02
     18.858  0.1173E+01  0.5261E+02
     18.998 -0.5207E-01  0.5260E+02
     19.138  0.2417E+00  0.5263E+02
     19.279  0.7628E+00  0.5274E+02
     19.419  0.1182E+01  0.5291E+02
     19.560  0.1440E+01  0.5311E+02
     19.700  0.1243E+01  0.5328E+02
     19.840  0.1432E+01  0.5348E+02
     19.981  0.4547E+00  0.5355E+02
     20.121 -0.5733E-01  0.5354E+02
     20.262  0.1855E+01  0.5380E+02
     20.402  0.3612E+01  0.5431E+02
     20.542  0.2385E+01  0.5464E+02
     20.683  0.1865E+01  0.5490E+02
     20.823  0.1106E+01  0.5506E+02
     20.964  0.3138E+00  0.5510E+02
     21.104  0.1743E+01  0.5535E+02
     21.244  0.2442E+01  0.5569E+02
     21.385  0.6341E+00  0.5578E+02
     21.525 -0.2964E+00  0.5574E+02
     21.665  0.1890E+00  0.5576E+02
     21.806  0.3048E+01  0.5619E+02
     21.946  0.4544E+01  0.5683E+02
     22.087  0.1934E+01  0.5710E+02
     22.227  0.7969E-01  0.5711E+02
     22.367 -0.2963E+00  0.5707E+02
     22.508  0.7824E+00  0.5718E+02
     22.648  0.3862E+01  0.5772E+02
     22.789  0.4543E+01  0.5836E+02
     22.929  0.2996E+01  0.5878E+02
     23.069  0.2296E+01  0.5910E+02
     23.210  0.1352E+01  0.5929E+02
     23.350  0.2008E+00  0.5932E+02
     23.491 -0.2335E+00  0.5929E+02
     23.631  0.2660E+00  0.5933E+02
     23.771  0.2657E+01  0.5970E+02
     23.912  0.3924E+01  0.6025E+02
     24.052  0.2969E+01  0.6067E+02
     24.193  0.2129E+01  0.6097E+02
     24.333  0.1520E+01  0.6118E+02
     24.473  0.4396E+00  0.6124E+02
     24.614 -0.2448E+00  0.6121E+02
     24.754  0.5049E+00  0.6128E+02
     24.895  0.3190E+01  0.6173E+02
     25.035  0.3077E+01  0.6216E+02
     25.175  0.3724E+00  0.6221E+02
     25.316 -0.3665E+00  0.6216E+02
     25.456  0.1186E+01  0.6232E+02
     25.597  0.4411E+01  0.6294E+02
     25.737  0.3820E+01  0.6348E+02
     25.877  0.8097E+00  0.6359E+02
     26.018  0.6914E+00  0.6369E+02
     26.158  0.1330E+01  0.6388E+02
     26.299  0.5051E+00  0.6395E+02
     26.439  0.1634E+01  0.6418E+02
     26.579  0.3417E+01  0.6466E+02
     26.720  0.1776E+01  0.6491E+02
     26.860  0.3962E+00  0.6496E+02
     27.001  0.1289E+01  0.6514E+02
     27.141  0.1060E+01  0.6529E+02
     27.281  0.1821E-01  0.6530E+02
     27.422 -0.2197E-01  0.6529E+02
     27.562  0.9973E+00  0.6543E+02
     27.703  0.2280E+01  0.6575E+02
     27.843  0.3045E+01  0.6618E+02
     27.983  0.2457E+01  0.6652E+02
     28.124  0.1571E+01  0.6674E+02
     28.264  0.7451E+00  0.6685E+02
     28.405  0.1453E+01  0.6705E+02
     28.545  0.3580E+01  0.6756E+02
     28.685  0.2695E+01  0.6793E+02
     28.826  0.5567E+00  0.6801E+02
     28.966  0.1663E+00  0.6804E+02
     29.107  0.6198E+00  0.6812E+02
     29.247  0.1227E+01  0.6830E+02
     29.387  0.1053E+01  0.6844E+02
     29.528  0.1467E+01  0.6865E+02
     29.668  0.2663E+01  0.6902E+02
     29.809  0.3401E+01  0.6950E+02
     29.949  0.2142E+01  0.6980E+02
     30.089  0.1151E+01  0.6996E+02
     30.230  0.1819E+01  0.7022E+02
     30.370  0.1149E+01  0.7038E+02
     30.510 -0.2919E-01  0.7038E+02
     30.651  0.3166E+00  0.7042E+02
     30.791  0.1841E+01  0.7068E+02
     30.932  0.2546E+01  0.7104E+02
     31.072  0.3870E+01  0.7158E+02
     31.212  0.4113E+01  0.7216E+02
     31.353  0.3050E+01  0.7259E+02
     31.493  0.1578E+01  0.7281E+02
     31.634  0.8849E-01  0.7282E+02
     31.774  0.4265E+00  0.7288E+02
     31.914  0.1532E+01  0.7309E+02
     32.055  0.1810E+01  0.7335E+02
     32.195  0.2079E+01  0.7364E+02
     32.336  0.2352E+01  0.7397E+02
     32.476  0.2050E+01  0.7426E+02
     32.616  0.7674E+00  0.7437E+02
     32.757 -0.4989E-01  0.7436E+02
     32.897 -0.1319E+00  0.7434E+02
     33.038 -0.1935E+00  0.7431E+02
     33.178  0.1068E+01  0.7446E+02
     33.318  0.4968E+01  0.7516E+02
     33.459  0.6065E+01  0.7601E+02
     33.599  0.3789E+01  0.7654E+02
     33.740  0.3190E+01  0.7699E+02
     33.880  0.1879E+01  0.7726E+02
     34.020  0.9231E+00  0.7739E+02
     34.161  0.4516E+00  0.7745E+02
     34.301  0.4547E+00  0.7751E+02
     34.442  0.5853E+00  0.7759E+02
     34.582  0.1315E+01  0.7778E+02
     34.722  0.2841E+01  0.7818E+02
     34.863  0.1910E+01  0.7845E+02
     35.003  0.6936E+00  0.7854E+02
     35.144  0.1229E+01  0.7872E+02
     35.284  0.1387E+01  0.7891E+02
     35.424  0.2912E+00  0.7895E+02
     35.565 -0.8936E-01  0.7894E+02
     35.705  0.4969E+00  0.7901E+02
     35.846  0.1550E+01  0.7923E+02
     35.986  0.2175E+01  0.7953E+02
     36.126  0.2374E+01  0.7987E+02
     36.267  0.1066E+01  0.8002E+02
     36.407 -0.3416E-01  0.8001E+02
     36.548 -0.6740E-01  0.8000E+02
     36.688 -0.7177E-02  0.8000E+02
     36.828 -0.2262E-03  0.8000E+02
     36.969 -0.2450E-05  0.8000E+02
     37.109 -0.9553E-08  0.8000E+02
     37.250 -0.1365E-10  0.8000E+02
     37.390 -0.7288E-14  0.8000E+02
     37.530  0.0000E+00  0.8000E+02
     37.671  0.0000E+00  0.8000E+02
     37.811  0.0000E+00  0.8000E+02
     37.952  0.0000E+00  0.8000E+02
     38.092  0.0000E+00  0.8000E+02
