    4    4    1    1
  0.1022208E+02  0.3445083E-09  0.3445083E-09  0.3445083E-09  0.5000000E-15
  1.000000000000000E-004
  CAR 
 unknown system                          
     32     10     40
 
  0.0000000E+00  0.0000000E+00  0.0000000E+00  0.8000000E-02
    1       -2.027137   1.000000
    2        1.867188   1.000000
    3        1.867188   1.000000
    4        1.867188   1.000000
    5        2.607798   1.000000
    6        2.607798   1.000000
    7        2.607798   1.000000
    8        5.177422   1.000000
    9        5.177422   1.000000
   10        5.177422   1.000000
   11        6.739301   0.786185
   12        6.739301   0.786185
   13        7.776766  -0.000000
   14        7.776766  -0.000000
   15        7.776766  -0.000000
   16        8.075594  -0.000000
   17        8.075594  -0.000000
   18        8.075594  -0.000000
   19        8.075594  -0.000000
   20        8.075594  -0.000000
   21        8.075594  -0.000000
   22       10.078280  -0.000000
   23       10.078280  -0.000000
   24       10.078280  -0.000000
   25       18.577011   0.000000
   26       18.577011   0.000000
   27       18.577011   0.000000
   28       23.086351   0.000000
   29       23.086351   0.000000
   30       23.086351   0.000000
   31       23.086351   0.000000
   32       23.086351   0.000000
   33       23.086351   0.000000
   34       28.512136   0.000000
   35       28.512136   0.000000
   36       28.512136   0.000000
   37       30.149736   0.000000
   38       33.432038   0.000000
   39       33.432038   0.000000
   40       33.432038   0.000000
 
  0.2000000E+00  0.0000000E+00  0.0000000E+00  0.4800000E-01
    1       -1.465766   1.000000
    2        1.967300   1.000000
    3        2.201794   1.000000
    4        2.201794   1.000000
    5        2.824786   1.000000
    6        2.865700   1.000000
    7        2.865700   1.000000
    8        4.898463   1.000000
    9        5.384564   1.000000
   10        5.384564   1.000000
   11        6.482328   1.020851
   12        6.621303   1.019591
   13        6.621303   1.019591
   14        6.834613   0.404918
   15        7.439944  -0.000042
   16        7.439944  -0.000042
   17        7.673727  -0.000000
   18        7.696113  -0.000000
   19        7.696113  -0.000000
   20        8.076738  -0.000000
   21        8.076738  -0.000000
   22        8.246881  -0.000000
   23       11.925308  -0.000000
   24       11.925308  -0.000000
   25       18.573605   0.000000
   26       18.573605   0.000000
   27       21.102138   0.000000
   28       21.102138   0.000000
   29       21.132057   0.000000
   30       22.013207   0.000000
   31       22.013207   0.000000
   32       24.014839   0.000000
   33       24.014839   0.000000
   34       28.576044   0.000000
   35       29.800659   0.000000
   36       31.002655   0.000000
   37       31.002655   0.000000
   38       33.166099   0.000000
   39       33.367885   0.000000
   40       33.367894   0.000000
 
  0.4000000E+00  0.0000000E+00  0.0000000E+00  0.4800000E-01
    1        0.046611   1.000000
    2        1.641654   1.000000
    3        2.882526   1.000000
    4        2.882526   1.000000
    5        3.417576   1.000000
    6        3.637523   1.000000
    7        3.637523   1.000000
    8        4.206000   1.000000
    9        4.910879   1.000000
   10        4.910879   1.000000
   11        5.934967   1.000000
   12        5.977490   1.000000
   13        5.977490   1.000000
   14        6.088509   1.000002
   15        6.740797   0.781102
   16        6.740797   0.781102
   17        6.842950   0.370693
   18        6.842950   0.370693
   19        7.086655  -0.032701
   20        7.407566  -0.000106
   21        8.077464  -0.000000
   22        8.077464  -0.000000
   23       14.791730   0.000000
   24       14.791730   0.000000
   25       17.928004   0.000000
   26       17.928004   0.000000
   27       18.582227   0.000000
   28       18.582227   0.000000
   29       20.727311   0.000000
   30       20.727311   0.000000
   31       25.685127   0.000000
   32       26.465379   0.000000
   33       26.465379   0.000000
   34       28.801387   0.000000
   35       29.207887   0.000000
   36       29.736159   0.000000
   37       29.794510   0.000000
   38       29.794510   0.000000
   39       34.967522   0.000000
   40       35.694772   0.000000
 
  0.2000000E+00  0.2000000E+00  0.0000000E+00  0.9600000E-01
    1       -0.930286   1.000000
    2        2.328762   1.000000
    3        2.328762   1.000000
    4        2.498754   1.000000
    5        3.056770   1.000000
    6        3.056770   1.000000
    7        3.075248   1.000000
    8        4.775016   1.000000
    9        5.451773   1.000000
   10        5.474887   1.000000
   11        6.043916   1.000000
   12        6.047938   1.000000
   13        6.047938   1.000000
   14        6.437374   1.011786
   15        6.863692   0.289100
   16        7.184227  -0.012191
   17        7.399501  -0.000132
   18        7.399501  -0.000132
   19        7.693414  -0.000000
   20        7.693414  -0.000000
   21        7.828337  -0.000000
   22       10.096596  -0.000000
   23       10.096596  -0.000000
   24       13.152324   0.000000
   25       17.371305   0.000000
   26       19.201624   0.000000
   27       21.148006   0.000000
   28       21.148006   0.000000
   29       21.864358   0.000000
   30       21.864358   0.000000
   31       22.960091   0.000000
   32       22.960091   0.000000
   33       24.868800   0.000000
   34       28.346000   0.000000
   35       29.628058   0.000000
   36       30.060489   0.000000
   37       31.254138   0.000000
   38       31.254138   0.000000
   39       34.322340   0.000000
   40       36.091925   0.000000
 
  0.4000000E+00  0.2000000E+00  0.0000000E+00  0.1920000E+00
    1        0.509061   1.000000
    2        2.045995   1.000000
    3        3.109495   1.000000
    4        3.173392   1.000000
    5        3.573715   1.000000
    6        3.598093   1.000000
    7        3.742151   1.000000
    8        4.244399   1.000000
    9        4.543854   1.000000
   10        4.822356   1.000000
   11        5.237474   1.000000
   12        5.423301   1.000000
   13        5.997979   1.000000
   14        6.298806   1.000858
   15        6.633907   1.009696
   16        6.735836   0.797775
   17        6.840620   0.380192
   18        6.904532   0.151043
   19        7.328758  -0.000790
   20        7.688607  -0.000000
   21        7.704102  -0.000000
   22        8.175433  -0.000000
   23       12.278411   0.000000
   24       14.604203   0.000000
   25       15.682225   0.000000
   26       18.688597   0.000000
   27       19.463194   0.000000
   28       20.360269   0.000000
   29       22.808920   0.000000
   30       23.756287   0.000000
   31       24.018127   0.000000
   32       24.248122   0.000000
   33       26.066384   0.000000
   34       26.574237   0.000000
   35       26.977367   0.000000
   36       32.078483   0.000000
   37       32.257802   0.000000
   38       33.281661   0.000000
   39       33.499678   0.000000
   40       36.050374   0.000000
 
  0.4000000E+00  0.4000000E+00  0.0000000E+00  0.9600000E-01
    1        1.703165   1.000000
    2        2.961138   1.000000
    3        2.961138   1.000000
    4        3.472574   1.000000
    5        3.860075   1.000000
    6        3.995265   1.000000
    7        3.995265   1.000000
    8        4.217712   1.000000
    9        4.429104   1.000000
   10        4.429104   1.000000
   11        4.500001   1.000000
   12        5.062902   1.000000
   13        6.040005   1.000000
   14        6.238892   1.000194
   15        6.282084   1.000579
   16        6.367715   1.003668
   17        6.367715   1.003668
   18        6.888613   0.200630
   19        6.888613   0.200630
   20        7.143302  -0.020475
   21        8.247246  -0.000000
   22        9.701497  -0.000000
   23        9.701497  -0.000000
   24       11.662223  -0.000000
   25       17.820608   0.000000
   26       20.291442   0.000000
   27       20.596945   0.000000
   28       20.596945   0.000000
   29       21.800210   0.000000
   30       21.800210   0.000000
   31       23.116544   0.000000
   32       23.822016   0.000000
   33       28.058108   0.000000
   34       28.058108   0.000000
   35       29.257348   0.000000
   36       30.794744   0.000000
   37       33.268575   0.000000
   38       34.785721   0.000000
   39       35.836748   0.000000
   40       35.836748   0.000000
 
  0.2000000E+00  0.2000000E+00  0.2000000E+00  0.6400000E-01
    1       -0.437683   1.000000
    2        2.600904   1.000000
    3        2.600904   1.000000
    4        2.600904   1.000000
    5        3.257369   1.000000
    6        3.257369   1.000000
    7        3.257369   1.000000
    8        4.723577   1.000000
    9        5.464677   1.000000
   10        5.464677   1.000000
   11        5.624899   1.000000
   12        5.624899   1.000000
   13        5.624899   1.000000
   14        6.711458   0.871536
   15        6.711458   0.871536
   16        6.767663   0.682523
   17        6.767663   0.682523
   18        6.767663   0.682523
   19        7.911214  -0.000000
   20        7.911214  -0.000000
   21        7.911214  -0.000000
   22       10.921359  -0.000000
   23       10.921359  -0.000000
   24       10.921359  -0.000000
   25       18.458052   0.000000
   26       18.458052   0.000000
   27       18.458052   0.000000
   28       21.841944   0.000000
   29       21.841944   0.000000
   30       21.841944   0.000000
   31       25.564137   0.000000
   32       25.654477   0.000000
   33       25.654477   0.000000
   34       25.654477   0.000000
   35       30.213145   0.000000
   36       30.213145   0.000000
   37       30.213145   0.000000
   38       31.053446   0.000000
   39       34.653715   0.000000
   40       34.653715   0.000000
 
  0.4000000E+00  0.2000000E+00  0.2000000E+00  0.1920000E+00
    1        0.864523   1.000000
    2        2.247825   1.000000
    3        3.192432   1.000000
    4        3.192432   1.000000
    5        3.649138   1.000000
    6        3.649138   1.000000
    7        3.805529   1.000000
    8        4.385166   1.000000
    9        4.824249   1.000000
   10        4.824249   1.000000
   11        5.075678   1.000000
   12        5.347930   1.000000
   13        5.637456   1.000000
   14        6.112124   1.000004
   15        6.337252   1.001999
   16        6.337252   1.001999
   17        6.872300   0.257190
   18        7.259279  -0.003462
   19        7.734671  -0.000000
   20        7.734671  -0.000000
   21        7.735484  -0.000000
   22        8.302044  -0.000000
   23       12.388472   0.000000
   24       12.388472   0.000000
   25       15.933913   0.000000
   26       15.933913   0.000000
   27       20.299406   0.000000
   28       22.610740   0.000000
   29       22.610740   0.000000
   30       22.692600   0.000000
   31       24.896943   0.000000
   32       24.896943   0.000000
   33       26.479216   0.000000
   34       27.843021   0.000000
   35       29.526836   0.000000
   36       31.039490   0.000000
   37       31.096425   0.000000
   38       33.350169   0.000000
   39       33.350169   0.000000
   40       34.647675   0.000000
 
  0.4000000E+00  0.4000000E+00  0.2000000E+00  0.1920000E+00
    1        1.713800   1.000000
    2        2.595864   1.000000
    3        2.595864   1.000000
    4        2.905800   1.000000
    5        4.157814   1.000000
    6        4.358635   1.000000
    7        4.358635   1.000000
    8        4.707327   1.000000
    9        4.890493   1.000000
   10        4.890493   1.000000
   11        5.076905   1.000000
   12        5.149249   1.000000
   13        5.476291   1.000000
   14        5.786412   1.000000
   15        5.786412   1.000000
   16        5.818293   1.000000
   17        6.945540   0.051879
   18        7.487081  -0.000010
   19        7.487081  -0.000010
   20        7.537807  -0.000002
   21        8.012165  -0.000000
   22        9.531428  -0.000000
   23        9.531428  -0.000000
   24       11.165145  -0.000000
   25       15.651057   0.000000
   26       17.493367   0.000000
   27       17.493367   0.000000
   28       19.759115   0.000000
   29       23.806959   0.000000
   30       25.542279   0.000000
   31       25.542279   0.000000
   32       27.582566   0.000000
   33       28.520048   0.000000
   34       28.520048   0.000000
   35       29.779678   0.000000
   36       30.763698   0.000000
   37       32.423202   0.000000
   38       33.683618   0.000000
   39       33.683618   0.000000
   40       35.168448   0.000000
 
  0.4000000E+00  0.4000000E+00  0.4000000E+00  0.6400000E-01
    1        1.831024   1.000000
    2        2.220736   1.000000
    3        2.220736   1.000000
    4        2.220736   1.000000
    5        4.801334   1.000000
    6        4.801334   1.000000
    7        4.801334   1.000000
    8        5.174312   1.000000
    9        5.174312   1.000000
   10        5.309120   1.000000
   11        5.309120   1.000000
   12        5.309120   1.000000
   13        5.861160   1.000000
   14        5.861160   1.000000
   15        5.861160   1.000000
   16        5.942846   1.000000
   17        7.592639  -0.000000
   18        7.592639  -0.000000
   19        7.817840  -0.000000
   20        7.817840  -0.000000
   21        7.817840  -0.000000
   22        9.101419  -0.000000
   23        9.101419  -0.000000
   24        9.101419  -0.000000
   25       15.438143   0.000000
   26       15.438143   0.000000
   27       15.438143   0.000000
   28       17.032966   0.000000
   29       27.766669   0.000000
   30       27.766669   0.000000
   31       27.766669   0.000000
   32       29.087616   0.000000
   33       31.363250   0.000000
   34       31.363250   0.000000
   35       31.363250   0.000000
   36       31.855489   0.000000
   37       31.855489   0.000000
   38       31.855489   0.000000
   39       33.958612   0.000000
   40       33.958612   0.000000
