 vasp.6.2.0 18Jan21 (build Mar 17 2021 09:06:54) complex                        
  
 executed on             LinuxIFC date 2021.09.09  09:02:33
 serial version


--------------------------------------------------------------------------------------------------------


 INCAR:
   ENCUT = 290.000000
   SIGMA = 0.200000
   EDIFF = 1.00e-06
   GGA = PE
   PREC = normal
   IBRION = -1
   ICHARG = 1
   ISMEAR = 1
   KPAR = 1
   NBANDS = 40
   NSW = 0
   NCORE = 1
   LCHARG = .TRUE.

 POTCAR:    PAW_PBE Fe 06Sep2000                  
 POTCAR:    PAW_PBE Fe 06Sep2000                  
   SHA256 =  cd5a22d9368cc8b5cc476bea79732366149640da08ac9009b0e1b7fc627eea28 Fe/POTCAR             
   COPYR  = (c) Copyright 06Sep2000 Georg Kresse                                                    
   COPYR  = This file is part of the software VASP. Any use, copying, and all other rights are regul
   COPYR  = If you do not have a valid VASP license, you may not use, copy or distribute this file. 
   VRHFIN =Fe:  d7 s1                                                                               
   LEXCH  = PE                                                                                      
   EATOM  =   594.3153 eV,   43.6809 Ry                                                             
                                                                                                    
   TITEL  = PAW_PBE Fe 06Sep2000                                                                    
   LULTRA =        F    use ultrasoft PP ?                                                          
   IUNSCR =        1    unscreen: 0-lin 1-nonlin 2-no                                               
   RPACOR =    2.000    partial core radius                                                         
   POMASS =   55.847; ZVAL   =    8.000    mass and valenz                                          
   RCORE  =    2.300    outmost cutoff radius                                                       
   RWIGS  =    2.460; RWIGS  =    1.302    wigner-seitz radius (au A)                               
   ENMAX  =  267.882; ENMIN  =  200.911 eV                                                          
   RCLOC  =    1.701    cutoff for local pot                                                        
   LCOR   =        T    correct aug charges                                                         
   LPAW   =        T    paw PP                                                                      
   EAUG   =  511.368                                                                                
   DEXC   =    0.000                                                                                
   RMAX   =    2.356    core radius for proj-oper                                                   
   RAUG   =    1.300    factor for augmentation sphere                                              
   RDEP   =    2.442    radius for radial grids                                                     
   RDEPT  =    1.890    core radius for aug-charge                                                  
                                                                                                    
   Atomic configuration                                                                             
    9 entries                                                                                       
     n  l   j            E        occ.                                                              
     1  0  0.50     -6993.8440   2.0000                                                             
     2  0  0.50      -814.6047   2.0000                                                             
     2  1  1.50      -693.3689   6.0000                                                             
     3  0  0.50       -89.4732   2.0000                                                             
     3  1  1.50       -55.6373   6.0000                                                             
     3  2  2.50        -3.8151   7.0000                                                             
     4  0  0.50        -4.2551   1.0000                                                             
     4  1  1.50        -3.4015   0.0000                                                             
     4  3  2.50        -1.3606   0.0000                                                             
   Description                                                                                      
     l       E           TYP  RCUT    TYP  RCUT                                                     
     2     -3.8151135     23  2.300                                                                 
     2     -5.1756961     23  2.300                                                                 
     0     -4.2550963     23  2.300                                                                 
     0      7.2035603     23  2.300                                                                 
     1     -2.7211652     23  2.300                                                                 
     1     18.4316424     23  2.300                                                                 
  local pseudopotential read in
  partial core-charges read in
  partial kinetic energy density read in
  atomic valenz-charges read in
  non local Contribution for L=           2  read in
    real space projection operators read in
  non local Contribution for L=           2  read in
    real space projection operators read in
  non local Contribution for L=           0  read in
    real space projection operators read in
  non local Contribution for L=           0  read in
    real space projection operators read in
  non local Contribution for L=           1  read in
    real space projection operators read in
  non local Contribution for L=           1  read in
    real space projection operators read in
    PAW grid and wavefunctions read in
 
   number of l-projection  operators is LMAX  =           6
   number of lm-projection operators is LMMAX =          18
 
  PAW_PBE Fe 06Sep2000                  :
 energy of atom  1       EATOM= -594.3153
 kinetic energy error for atom=    0.0269 (will be added to EATOM!!)
 
 
 POSCAR: Fe
  positions in cartesian coordinates
  No initial velocities read in
 exchange correlation table for  LEXCH =        8
   RHO(1)=    0.500       N(1)  =     2000
   RHO(2)=  100.500       N(2)  =     4000
 


--------------------------------------------------------------------------------------------------------


 ion  position               nearest neighbor table
   1  0.000  0.000  0.000-   2 2.44   3 2.44   4 2.44   3 2.44   4 2.44   2 2.44   4 2.44   4 2.44
                             2 2.44   3 2.44   3 2.44   2 2.44
   2  0.500  0.500  0.000-   1 2.44   3 2.44   4 2.44   3 2.44   4 2.44   1 2.44   3 2.44   3 2.44
                             1 2.44   4 2.44   4 2.44   1 2.44
   3  0.500  0.000  0.500-   1 2.44   2 2.44   4 2.44   1 2.44   2 2.44   2 2.44   4 2.44   2 2.44
                             1 2.44   4 2.44   1 2.44   4 2.44
   4  0.000  0.500  0.500-   1 2.44   2 2.44   3 2.44   1 2.44   2 2.44   1 2.44   3 2.44   1 2.44
                             2 2.44   3 2.44   2 2.44   3 2.44
 
  LATTYP: Found a simple cubic cell.
 ALAT       =     3.4450830000
  
  Lattice vectors:
  
 A1 = (   3.4450830000,   0.0000000000,   0.0000000000)
 A2 = (   0.0000000000,   3.4450830000,   0.0000000000)
 A3 = (   0.0000000000,   0.0000000000,   3.4450830000)


Analysis of symmetry for initial positions (statically):
=====================================================================
 Subroutine PRICEL returns following result:
 
  LATTYP: Found a face centered cubic cell.
 ALAT       =     3.4450830000
  
  Lattice vectors:
  
 A1 = (   1.7225415000,  -1.7225415000,   0.0000000000)
 A2 = (   1.7225415000,   0.0000000000,   1.7225415000)
 A3 = (   0.0000000000,  -1.7225415000,   1.7225415000)
 
   4 primitive cells build up your supercell.
 

 Routine SETGRP: Setting up the symmetry group for a 
 simple cubic supercell.


 Subroutine GETGRP returns: Found 48 space group operations
 (whereof 48 operations were pure point group operations)
 out of a pool of 48 trial point group operations.


The static configuration has the point symmetry O_h .


Analysis of symmetry for dynamics (positions and initial velocities):
=====================================================================
 Subroutine PRICEL returns following result:
 
  LATTYP: Found a face centered cubic cell.
 ALAT       =     3.4450830000
  
  Lattice vectors:
  
 A1 = (   1.7225415000,  -1.7225415000,   0.0000000000)
 A2 = (   1.7225415000,   0.0000000000,   1.7225415000)
 A3 = (   0.0000000000,  -1.7225415000,   1.7225415000)
 
   4 primitive cells build up your supercell.
 

 Routine SETGRP: Setting up the symmetry group for a 
 simple cubic supercell.


 Subroutine GETGRP returns: Found 48 space group operations
 (whereof 48 operations were pure point group operations)
 out of a pool of 48 trial point group operations.


The dynamic configuration has the point symmetry O_h .


 Subroutine INISYM returns: Found 48 space group operations
 (whereof 48 operations are pure point group operations),
 and found     4 'primitive' translations


----------------------------------------------------------------------------------------

                                     Primitive cell                                     

  volume of cell :      10.2221

  direct lattice vectors                    reciprocal lattice vectors
     1.722541500 -1.722541500  0.000000000     0.290268769 -0.290268769 -0.290268769
     1.722541500  0.000000000  1.722541500     0.290268769  0.290268769  0.290268769
     0.000000000 -1.722541500  1.722541500    -0.290268769 -0.290268769  0.290268769

  length of vectors
     2.436041551  2.436041551  2.436041551     0.502760255  0.502760255  0.502760255

  position of ions in fractional coordinates (direct lattice)
     0.000000000  0.000000000  0.000000000

  ion indices of the primitive-cell ions
   primitive index   ion index
                 1           1

----------------------------------------------------------------------------------------

 
 
 KPOINTS: KPOINTS created by Atomic Simulation Env

Automatic generation of k-mesh.
 Grid dimensions read from file:
 generate k-points for:    5    5    5

 Generating k-lattice:

  Cartesian coordinates                     Fractional coordinates (reciprocal lattice)
     0.058053754  0.000000000  0.000000000     0.200000000  0.000000000  0.000000000
     0.000000000  0.058053754  0.000000000     0.000000000  0.200000000  0.000000000
     0.000000000  0.000000000  0.058053754     0.000000000  0.000000000  0.200000000

  Length of vectors
     0.058053754  0.058053754  0.058053754

  Shift w.r.t. Gamma in fractional coordinates (k-lattice)
     0.000000000  0.000000000  0.000000000

 
 Subroutine IBZKPT returns following result:
 ===========================================
 
 Found     10 irreducible k-points:
 
 Following reciprocal coordinates:
            Coordinates               Weight
  0.000000  0.000000  0.000000      1.000000
  0.200000  0.000000  0.000000      6.000000
  0.400000  0.000000  0.000000      6.000000
  0.200000  0.200000  0.000000     12.000000
  0.400000  0.200000  0.000000     24.000000
  0.400000  0.400000  0.000000     12.000000
  0.200000  0.200000  0.200000      8.000000
  0.400000  0.200000  0.200000     24.000000
  0.400000  0.400000  0.200000     24.000000
  0.400000  0.400000  0.400000      8.000000
 
 Following cartesian coordinates:
            Coordinates               Weight
  0.000000  0.000000  0.000000      1.000000
  0.058054  0.000000  0.000000      6.000000
  0.116108  0.000000  0.000000      6.000000
  0.058054  0.058054  0.000000     12.000000
  0.116108  0.058054  0.000000     24.000000
  0.116108  0.116108  0.000000     12.000000
  0.058054  0.058054  0.058054      8.000000
  0.116108  0.058054  0.058054     24.000000
  0.116108  0.116108  0.058054     24.000000
  0.116108  0.116108  0.116108      8.000000
 


--------------------------------------------------------------------------------------------------------




 Dimension of arrays:
   k-points           NKPTS =     10   k-points in BZ     NKDIM =     10   number of bands    NBANDS=     40
   number of dos      NEDOS =    301   number of ions     NIONS =      4
   non local maximal  LDIM  =      6   non local SUM 2l+1 LMDIM =     18
   total plane-waves  NPLWV =   2744
   max r-space proj   IRMAX =      1   max aug-charges    IRDMAX=   2590
   dimension x,y,z NGX =    14 NGY =   14 NGZ =   14
   dimension x,y,z NGXF=    28 NGYF=   28 NGZF=   28
   support grid    NGXF=    28 NGYF=   28 NGZF=   28
   ions per type =               4
   NGX,Y,Z   is equivalent  to a cutoff of   6.76,  6.76,  6.76 a.u.
   NGXF,Y,Z  is equivalent  to a cutoff of  13.51, 13.51, 13.51 a.u.

 SYSTEM =  unknown system                          
 POSCAR =  Fe                                      

 Startparameter for this run:
   NWRITE =      2    write-flag & timer
   PREC   = normal    normal or accurate (medium, high low for compatibility)
   ISTART =      0    job   : 0-new  1-cont  2-samecut
   ICHARG =      1    charge: 1-file 2-atom 10-const
   ISPIN  =      1    spin polarized calculation?
   LNONCOLLINEAR =      F non collinear calculations
   LSORBIT =      F    spin-orbit coupling
   INIWAV =      1    electr: 0-lowe 1-rand  2-diag
   LASPH  =      F    aspherical Exc in radial PAW
   METAGGA=      F    non-selfconsistent MetaGGA calc.

 Electronic Relaxation 1
   ENCUT  =  290.0 eV  21.31 Ry    4.62 a.u.   4.78  4.78  4.78*2*pi/ulx,y,z
   ENINI  =  290.0     initial cutoff
   ENAUG  =  511.4 eV  augmentation charge cutoff
   NELM   =     60;   NELMIN=  2; NELMDL= -5     # of ELM steps 
   EDIFF  = 0.1E-05   stopping-criterion for ELM
   LREAL  =      F    real-space projection
   NLSPLINE    = F    spline interpolate recip. space projectors
   LCOMPAT=      F    compatible to vasp.4.4
   GGA_COMPAT  = T    GGA compatible to vasp.4.4-vasp.4.6
   LMAXPAW     = -100 max onsite density
   LMAXMIX     =    2 max onsite mixed and CHGCAR
   VOSKOWN=      0    Vosko Wilk Nusair interpolation
   ROPT   =    0.00000
 Ionic relaxation
   EDIFFG = 0.1E-04   stopping-criterion for IOM
   NSW    =      0    number of steps for IOM
   NBLOCK =      1;   KBLOCK =      1    inner block; outer block 
   IBRION =     -1    ionic relax: 0-MD 1-quasi-New 2-CG
   NFREE  =      0    steps in history (QN), initial steepest desc. (CG)
   ISIF   =      2    stress and relaxation
   IWAVPR =      0    prediction:  0-non 1-charg 2-wave 3-comb
   ISYM   =      2    0-nonsym 1-usesym 2-fastsym
   LCORR  =      T    Harris-Foulkes like correction to forces

   POTIM  = 0.5000    time-step for ionic-motion
   TEIN   =    0.0    initial temperature
   TEBEG  =    0.0;   TEEND  =   0.0 temperature during run
   SMASS  =  -3.00    Nose mass-parameter (am)
   estimated Nose-frequenzy (Omega)   =  0.10E-29 period in steps = 0.13E+47 mass=  -0.271E-27a.u.
   SCALEE = 1.0000    scale energy and forces
   NPACO  =    256;   APACO  = 16.0  distance and # of slots for P.C.
   PSTRESS=    0.0 pullay stress

  Mass of Ions in am
   POMASS =  55.85
  Ionic Valenz
   ZVAL   =   8.00
  Atomic Wigner-Seitz radii
   RWIGS  =  -1.00
  virtual crystal weights 
   VCA    =   1.00
   NELECT =      32.0000    total number of electrons
   NUPDOWN=      -1.0000    fix difference up-down

 DOS related values:
   EMIN   =  10.00;   EMAX   =-10.00  energy-range for DOS
   EFERMI =   0.00
   ISMEAR =     1;   SIGMA  =   0.20  broadening in eV -4-tet -1-fermi 0-gaus

 Electronic relaxation 2 (details)
   IALGO  =     38    algorithm
   LDIAG  =      T    sub-space diagonalisation (order eigenvalues)
   LSUBROT=      F    optimize rotation matrix (better conditioning)
   TURBO    =      0    0=normal 1=particle mesh
   IRESTART =      0    0=no restart 2=restart with 2 vectors
   NREBOOT  =      0    no. of reboots
   NMIN     =      0    reboot dimension
   EREF     =   0.00    reference energy to select bands
   IMIX   =      4    mixing-type and parameters
     AMIX     =   0.40;   BMIX     =  1.00
     AMIX_MAG =   1.60;   BMIX_MAG =  1.00
     AMIN     =   0.10
     WC   =   100.;   INIMIX=   1;  MIXPRE=   1;  MAXMIX= -45

 Intra band minimization:
   WEIMIN = 0.0000     energy-eigenvalue tresh-hold
   EBREAK =  0.62E-08  absolut break condition
   DEPER  =   0.30     relativ break condition  

   TIME   =   0.40     timestep for ELM

  volume/ion in A,a.u.               =      10.22        68.98
  Fermi-wavevector in a.u.,A,eV,Ry     =   1.508661  2.850957 30.967669  2.276059
  Thomas-Fermi vector in A             =   2.619086
 
 Write flags
   LWAVE        =      T    write WAVECAR
   LDOWNSAMPLE  =      F    k-point downsampling of WAVECAR
   LCHARG       =      T    write CHGCAR
   LVTOT        =      F    write LOCPOT, total local potential
   LVHAR        =      F    write LOCPOT, Hartree potential only
   LELF         =      F    write electronic localiz. function (ELF)
   LORBIT       =      0    0 simple, 1 ext, 2 COOP (PROOUT), +10 PAW based schemes


 Dipole corrections
   LMONO  =      F    monopole corrections only (constant potential shift)
   LDIPOL =      F    correct potential (dipole corrections)
   IDIPOL =      0    1-x, 2-y, 3-z, 4-all directions 
   EPSILON=  1.0000000 bulk dielectric constant

 Exchange correlation treatment:
   GGA     =    PE    GGA type
   LEXCH   =     8    internal setting for exchange type
   VOSKOWN=      0    Vosko Wilk Nusair interpolation
   LHFCALC =     F    Hartree Fock is set to
   LHFONE  =     F    Hartree Fock one center treatment
   AEXX    =    0.0000 exact exchange contribution

 Linear response parameters
   LEPSILON=     F    determine dielectric tensor
   LRPA    =     F    only Hartree local field effects (RPA)
   LNABLA  =     F    use nabla operator in PAW spheres
   LVEL    =     F    velocity operator in full k-point grid
   LINTERFAST=   F  fast interpolation
   KINTER  =     0    interpolate to denser k-point grid
   CSHIFT  =0.1000    complex shift for real part using Kramers Kronig
   OMEGAMAX=  -1.0    maximum frequency
   DEG_THRESHOLD= 0.2000000E-02 threshold for treating states as degnerate
   RTIME   =   -0.100 relaxation time in fs
  (WPLASMAI=    0.000 imaginary part of plasma frequency in eV, 0.658/RTIME)
   DFIELD  = 0.0000000 0.0000000 0.0000000 field for delta impulse in time
 
 Orbital magnetization related:
   ORBITALMAG=     F  switch on orbital magnetization
   LCHIMAG   =     F  perturbation theory with respect to B field
   DQ        =  0.001000  dq finite difference perturbation B field
   LLRAUG    =     F  two centre corrections for induced B field



--------------------------------------------------------------------------------------------------------


 Static calculation
 charge density and potential will be updated during run
 non-spin polarized calculation
 Variant of blocked Davidson
 Davidson routine will perform the subspace rotation
 perform sub-space diagonalisation
    after iterative eigenvector-optimisation
 modified Broyden-mixing scheme, WC =      100.0
 initial mixing is a Kerker type mixing with AMIX =  0.4000 and BMIX =      1.0000
 Hartree-type preconditioning will be used
 using additional bands           24
 reciprocal scheme for non local part
 use partial core corrections
 calculate Harris-corrections to forces 
   (improved forces if not selfconsistent)
 use gradient corrections 
 use of overlap-Matrix (Vanderbilt PP)
 Methfessel and Paxton  Order N= 1 SIGMA  =   0.20


--------------------------------------------------------------------------------------------------------


  energy-cutoff  :      290.00
  volume of cell :       40.89
      direct lattice vectors                 reciprocal lattice vectors
     3.445083000  0.000000000  0.000000000     0.290268769  0.000000000  0.000000000
     0.000000000  3.445083000  0.000000000     0.000000000  0.290268769  0.000000000
     0.000000000  0.000000000  3.445083000     0.000000000  0.000000000  0.290268769

  length of vectors
     3.445083000  3.445083000  3.445083000     0.290268769  0.290268769  0.290268769


 
 k-points in units of 2pi/SCALE and weight: KPOINTS created by Atomic Simulation Env
   0.00000000  0.00000000  0.00000000       0.008
   0.05805375  0.00000000  0.00000000       0.048
   0.11610751  0.00000000  0.00000000       0.048
   0.05805375  0.05805375  0.00000000       0.096
   0.11610751  0.05805375  0.00000000       0.192
   0.11610751  0.11610751  0.00000000       0.096
   0.05805375  0.05805375  0.05805375       0.064
   0.11610751  0.05805375  0.05805375       0.192
   0.11610751  0.11610751  0.05805375       0.192
   0.11610751  0.11610751  0.11610751       0.064
 
 k-points in reciprocal lattice and weights: KPOINTS created by Atomic Simulation Env
   0.00000000  0.00000000  0.00000000       0.008
   0.20000000  0.00000000  0.00000000       0.048
   0.40000000  0.00000000  0.00000000       0.048
   0.20000000  0.20000000  0.00000000       0.096
   0.40000000  0.20000000  0.00000000       0.192
   0.40000000  0.40000000  0.00000000       0.096
   0.20000000  0.20000000  0.20000000       0.064
   0.40000000  0.20000000  0.20000000       0.192
   0.40000000  0.40000000  0.20000000       0.192
   0.40000000  0.40000000  0.40000000       0.064
 
 position of ions in fractional coordinates (direct lattice) 
   0.00000000  0.00000000  0.00000000
   0.50000000  0.50000000  0.00000000
   0.50000000  0.00000000  0.50000000
   0.00000000  0.50000000  0.50000000
 
 position of ions in cartesian coordinates  (Angst):
   0.00000000  0.00000000  0.00000000
   1.72254150  1.72254150  0.00000000
   1.72254150  0.00000000  1.72254150
   0.00000000  1.72254150  1.72254150
 


--------------------------------------------------------------------------------------------------------


 k-point   1 :   0.0000 0.0000 0.0000  plane waves:     461
 k-point   2 :   0.2000 0.0000 0.0000  plane waves:     457
 k-point   3 :   0.4000 0.0000 0.0000  plane waves:     462
 k-point   4 :   0.2000 0.2000 0.0000  plane waves:     455
 k-point   5 :   0.4000 0.2000 0.0000  plane waves:     460
 k-point   6 :   0.4000 0.4000 0.0000  plane waves:     460
 k-point   7 :   0.2000 0.2000 0.2000  plane waves:     452
 k-point   8 :   0.4000 0.2000 0.2000  plane waves:     462
 k-point   9 :   0.4000 0.4000 0.2000  plane waves:     459
 k-point  10 :   0.4000 0.4000 0.4000  plane waves:     456

 maximum number of plane-waves:       462
 maximum index in each direction: 
   IXMAX=    4   IYMAX=    4   IZMAX=    4
   IXMIN=   -5   IYMIN=   -5   IZMIN=   -5


 total amount of memory used by VASP MPI-rank0    35389. kBytes
=======================================================================

   base      :      30000. kBytes
   nonl-proj :        694. kBytes
   grid      :       1216. kBytes
   one-center:         62. kBytes
   wavefun   :       3417. kBytes
 
     INWAV:  cpu time    0.0000: real time    0.0000
 Broyden mixing: mesh for mixing (old mesh)
   NGX =  9   NGY =  9   NGZ =  9
  (NGX  = 28   NGY  = 28   NGZ  = 28)
  gives a total of    729 points

 initial charge density was supplied:
 charge density of overlapping atoms calculated
 number of electron      32.0000000 magnetization 
 keeping initial charge density in first step


--------------------------------------------------------------------------------------------------------


 Maximum index for augmentation-charges         2325 (set IRDMAX)


--------------------------------------------------------------------------------------------------------


 First call to EWALD:  gamma=   0.514
 Maximum number of real-space cells 3x 3x 3
 Maximum number of reciprocal cells 3x 3x 3

    FEWALD:  cpu time    0.0009: real time    0.0009


--------------------------------------- Iteration      1(   1)  ---------------------------------------


    POTLOK:  cpu time    0.0051: real time    0.0051
    SETDIJ:  cpu time    0.0039: real time    0.0039
     EDDAV:  cpu time    0.1650: real time    0.1840
       DOS:  cpu time    0.0009: real time    0.0009
    --------------------------------------------
      LOOP:  cpu time    0.1749: real time    0.1938

 eigenvalue-minimisations  :   856
 total energy-change (2. order) : 0.1657437E+03  (-0.8123368E+03)
 number of electron      32.0000000 magnetization 
 augmentation part       32.0000000 magnetization 

 Free energy of the ion-electron system (eV)
  ---------------------------------------------------
  alpha Z        PSCENC =       270.44909666
  Ewald energy   TEWEN  =     -2452.97223925
  -Hartree energ DENC   =      -414.53988404
  -exchange      EXHF   =         0.00000000
  -V(xc)+E(xc)   XCENC  =        16.92970068
  PAW double counting   =      2219.38341365    -2250.19294531
  entropy T*S    EENTRO =        -0.00290258
  eigenvalues    EBANDS =       399.53575645
  atomic energy  EATOM  =      2377.15370958
  Solvation  Ediel_sol  =         0.00000000
  ---------------------------------------------------
  free energy    TOTEN  =       165.74370585 eV

  energy without entropy =      165.74660843  energy(sigma->0) =      165.74467338


--------------------------------------------------------------------------------------------------------




--------------------------------------- Iteration      1(   2)  ---------------------------------------


     EDDAV:  cpu time    0.1156: real time    0.1156
       DOS:  cpu time    0.0009: real time    0.0009
    --------------------------------------------
      LOOP:  cpu time    0.1166: real time    0.1166

 eigenvalue-minimisations  :   824
 total energy-change (2. order) :-0.1916001E+03  (-0.1687568E+03)
 number of electron      32.0000000 magnetization 
 augmentation part       32.0000000 magnetization 

 Free energy of the ion-electron system (eV)
  ---------------------------------------------------
  alpha Z        PSCENC =       270.44909666
  Ewald energy   TEWEN  =     -2452.97223925
  -Hartree energ DENC   =      -414.53988404
  -exchange      EXHF   =         0.00000000
  -V(xc)+E(xc)   XCENC  =        16.92970068
  PAW double counting   =      2219.38341365    -2250.19294531
  entropy T*S    EENTRO =         0.01799110
  eigenvalues    EBANDS =       207.91478598
  atomic energy  EATOM  =      2377.15370958
  Solvation  Ediel_sol  =         0.00000000
  ---------------------------------------------------
  free energy    TOTEN  =       -25.85637094 eV

  energy without entropy =      -25.87436204  energy(sigma->0) =      -25.86236797


--------------------------------------------------------------------------------------------------------




--------------------------------------- Iteration      1(   3)  ---------------------------------------


     EDDAV:  cpu time    0.1260: real time    0.1260
       DOS:  cpu time    0.0010: real time    0.0010
    --------------------------------------------
      LOOP:  cpu time    0.1270: real time    0.1270

 eigenvalue-minimisations  :   912
 total energy-change (2. order) :-0.1248499E+02  (-0.1143465E+02)
 number of electron      32.0000000 magnetization 
 augmentation part       32.0000000 magnetization 

 Free energy of the ion-electron system (eV)
  ---------------------------------------------------
  alpha Z        PSCENC =       270.44909666
  Ewald energy   TEWEN  =     -2452.97223925
  -Hartree energ DENC   =      -414.53988404
  -exchange      EXHF   =         0.00000000
  -V(xc)+E(xc)   XCENC  =        16.92970068
  PAW double counting   =      2219.38341365    -2250.19294531
  entropy T*S    EENTRO =        -0.03146594
  eigenvalues    EBANDS =       195.47925273
  atomic energy  EATOM  =      2377.15370958
  Solvation  Ediel_sol  =         0.00000000
  ---------------------------------------------------
  free energy    TOTEN  =       -38.34136123 eV

  energy without entropy =      -38.30989529  energy(sigma->0) =      -38.33087258


--------------------------------------------------------------------------------------------------------




--------------------------------------- Iteration      1(   4)  ---------------------------------------


     EDDAV:  cpu time    0.1208: real time    0.1208
       DOS:  cpu time    0.0010: real time    0.0010
    --------------------------------------------
      LOOP:  cpu time    0.1219: real time    0.1219

 eigenvalue-minimisations  :   872
 total energy-change (2. order) :-0.1580877E+00  (-0.1577330E+00)
 number of electron      32.0000000 magnetization 
 augmentation part       32.0000000 magnetization 

 Free energy of the ion-electron system (eV)
  ---------------------------------------------------
  alpha Z        PSCENC =       270.44909666
  Ewald energy   TEWEN  =     -2452.97223925
  -Hartree energ DENC   =      -414.53988404
  -exchange      EXHF   =         0.00000000
  -V(xc)+E(xc)   XCENC  =        16.92970068
  PAW double counting   =      2219.38341365    -2250.19294531
  entropy T*S    EENTRO =        -0.03197286
  eigenvalues    EBANDS =       195.32167197
  atomic energy  EATOM  =      2377.15370958
  Solvation  Ediel_sol  =         0.00000000
  ---------------------------------------------------
  free energy    TOTEN  =       -38.49944890 eV

  energy without entropy =      -38.46747605  energy(sigma->0) =      -38.48879128


--------------------------------------------------------------------------------------------------------




--------------------------------------- Iteration      1(   5)  ---------------------------------------


     EDDAV:  cpu time    0.1229: real time    0.1229
       DOS:  cpu time    0.0010: real time    0.0010
    CHARGE:  cpu time    0.0073: real time    0.0073
    MIXING:  cpu time    0.0002: real time    0.0002
    --------------------------------------------
      LOOP:  cpu time    0.1314: real time    0.1314

 eigenvalue-minimisations  :   896
 total energy-change (2. order) :-0.1383118E-02  (-0.1383091E-02)
 number of electron      32.0000963 magnetization 
 augmentation part       14.1418075 magnetization 

 Broyden mixing:
  rms(total) = 0.23936E+01    rms(broyden)= 0.23929E+01
  rms(prec ) = 0.47098E+01
  weight for this iteration     100.00

 Free energy of the ion-electron system (eV)
  ---------------------------------------------------
  alpha Z        PSCENC =       270.44909666
  Ewald energy   TEWEN  =     -2452.97223925
  -Hartree energ DENC   =      -414.53988404
  -exchange      EXHF   =         0.00000000
  -V(xc)+E(xc)   XCENC  =        16.92970068
  PAW double counting   =      2219.38341365    -2250.19294531
  entropy T*S    EENTRO =        -0.03197681
  eigenvalues    EBANDS =       195.32029281
  atomic energy  EATOM  =      2377.15370958
  Solvation  Ediel_sol  =         0.00000000
  ---------------------------------------------------
  free energy    TOTEN  =       -38.50083202 eV

  energy without entropy =      -38.46885521  energy(sigma->0) =      -38.49017308


--------------------------------------------------------------------------------------------------------




--------------------------------------- Iteration      1(   6)  ---------------------------------------


    POTLOK:  cpu time    0.0048: real time    0.0048
    SETDIJ:  cpu time    0.0039: real time    0.0039
     EDDAV:  cpu time    0.1229: real time    0.1229
       DOS:  cpu time    0.0010: real time    0.0010
    CHARGE:  cpu time    0.0073: real time    0.0073
    MIXING:  cpu time    0.0003: real time    0.0003
    --------------------------------------------
      LOOP:  cpu time    0.1402: real time    0.1402

 eigenvalue-minimisations  :   896
 total energy-change (2. order) : 0.5802219E+01  (-0.1271213E+01)
 number of electron      32.0001025 magnetization 
 augmentation part       16.9722875 magnetization 

 Broyden mixing:
  rms(total) = 0.36607E+00    rms(broyden)= 0.36398E+00
  rms(prec ) = 0.68069E+00
  weight for this iteration     100.00

 eigenvalues of (default mixing * dielectric matrix)
  average eigenvalue GAMMA=   0.9221
  0.9221

 Free energy of the ion-electron system (eV)
  ---------------------------------------------------
  alpha Z        PSCENC =       270.44909666
  Ewald energy   TEWEN  =     -2452.97223925
  -Hartree energ DENC   =      -345.24137103
  -exchange      EXHF   =         0.00000000
  -V(xc)+E(xc)   XCENC  =        13.53459678
  PAW double counting   =      2505.36322452    -2527.20028721
  entropy T*S    EENTRO =        -0.05737270
  eigenvalues    EBANDS =       126.27202985
  atomic energy  EATOM  =      2377.15370958
  Solvation  Ediel_sol  =         0.00000000
  ---------------------------------------------------
  free energy    TOTEN  =       -32.69861281 eV

  energy without entropy =      -32.64124010  energy(sigma->0) =      -32.67948857


--------------------------------------------------------------------------------------------------------




--------------------------------------- Iteration      1(   7)  ---------------------------------------


    POTLOK:  cpu time    0.0048: real time    0.0048
    SETDIJ:  cpu time    0.0039: real time    0.0039
     EDDAV:  cpu time    0.1300: real time    0.1300
       DOS:  cpu time    0.0010: real time    0.0010
    CHARGE:  cpu time    0.0072: real time    0.0072
    MIXING:  cpu time    0.0002: real time    0.0002
    --------------------------------------------
      LOOP:  cpu time    0.1471: real time    0.1471

 eigenvalue-minimisations  :   952
 total energy-change (2. order) : 0.3464639E+00  (-0.1104615E+00)
 number of electron      32.0001026 magnetization 
 augmentation part       16.3679061 magnetization 

 Broyden mixing:
  rms(total) = 0.14130E+00    rms(broyden)= 0.14098E+00
  rms(prec ) = 0.30990E+00
  weight for this iteration     100.00

 eigenvalues of (default mixing * dielectric matrix)
  average eigenvalue GAMMA=   0.9901
  1.2251  0.7552

 Free energy of the ion-electron system (eV)
  ---------------------------------------------------
  alpha Z        PSCENC =       270.44909666
  Ewald energy   TEWEN  =     -2452.97223925
  -Hartree energ DENC   =      -353.37502363
  -exchange      EXHF   =         0.00000000
  -V(xc)+E(xc)   XCENC  =        14.01880382
  PAW double counting   =      2671.46856610    -2700.45084197
  entropy T*S    EENTRO =        -0.05181496
  eigenvalues    EBANDS =       141.40759475
  atomic energy  EATOM  =      2377.15370958
  Solvation  Ediel_sol  =         0.00000000
  ---------------------------------------------------
  free energy    TOTEN  =       -32.35214891 eV

  energy without entropy =      -32.30033395  energy(sigma->0) =      -32.33487725


--------------------------------------------------------------------------------------------------------




--------------------------------------- Iteration      1(   8)  ---------------------------------------


    POTLOK:  cpu time    0.0049: real time    0.0049
    SETDIJ:  cpu time    0.0040: real time    0.0040
     EDDAV:  cpu time    0.1384: real time    0.1384
       DOS:  cpu time    0.0010: real time    0.0010
    CHARGE:  cpu time    0.0072: real time    0.0072
    MIXING:  cpu time    0.0002: real time    0.0002
    --------------------------------------------
      LOOP:  cpu time    0.1557: real time    0.1557

 eigenvalue-minimisations  :  1048
 total energy-change (2. order) : 0.5436388E-01  (-0.1209248E-02)
 number of electron      32.0001020 magnetization 
 augmentation part       16.4184905 magnetization 

 Broyden mixing:
  rms(total) = 0.62523E-01    rms(broyden)= 0.62500E-01
  rms(prec ) = 0.14029E+00
  weight for this iteration     100.00

 eigenvalues of (default mixing * dielectric matrix)
  average eigenvalue GAMMA=   1.4612
  0.7991  1.0658  2.5188

 Free energy of the ion-electron system (eV)
  ---------------------------------------------------
  alpha Z        PSCENC =       270.44909666
  Ewald energy   TEWEN  =     -2452.97223925
  -Hartree energ DENC   =      -349.24223037
  -exchange      EXHF   =         0.00000000
  -V(xc)+E(xc)   XCENC  =        13.85279170
  PAW double counting   =      2793.76982839    -2825.65330062
  entropy T*S    EENTRO =        -0.05331564
  eigenvalues    EBANDS =       140.39787453
  atomic energy  EATOM  =      2377.15370958
  Solvation  Ediel_sol  =         0.00000000
  ---------------------------------------------------
  free energy    TOTEN  =       -32.29778502 eV

  energy without entropy =      -32.24446939  energy(sigma->0) =      -32.28001314


--------------------------------------------------------------------------------------------------------




--------------------------------------- Iteration      1(   9)  ---------------------------------------


    POTLOK:  cpu time    0.0048: real time    0.0048
    SETDIJ:  cpu time    0.0039: real time    0.0039
     EDDAV:  cpu time    0.1331: real time    0.1331
       DOS:  cpu time    0.0010: real time    0.0010
    CHARGE:  cpu time    0.0071: real time    0.0071
    MIXING:  cpu time    0.0003: real time    0.0003
    --------------------------------------------
      LOOP:  cpu time    0.1502: real time    0.1502

 eigenvalue-minimisations  :   992
 total energy-change (2. order) : 0.1989826E-01  (-0.4194271E-03)
 number of electron      32.0001023 magnetization 
 augmentation part       16.4453371 magnetization 

 Broyden mixing:
  rms(total) = 0.88024E-02    rms(broyden)= 0.87869E-02
  rms(prec ) = 0.10114E-01
  weight for this iteration     100.00

 eigenvalues of (default mixing * dielectric matrix)
  average eigenvalue GAMMA=   1.3539
  2.5523  1.1722  0.7918  0.8992

 Free energy of the ion-electron system (eV)
  ---------------------------------------------------
  alpha Z        PSCENC =       270.44909666
  Ewald energy   TEWEN  =     -2452.97223925
  -Hartree energ DENC   =      -345.11618152
  -exchange      EXHF   =         0.00000000
  -V(xc)+E(xc)   XCENC  =        13.70104142
  PAW double counting   =      2941.84149190    -2977.23013562
  entropy T*S    EENTRO =        -0.05274692
  eigenvalues    EBANDS =       139.94807699
  atomic energy  EATOM  =      2377.15370958
  Solvation  Ediel_sol  =         0.00000000
  ---------------------------------------------------
  free energy    TOTEN  =       -32.27788676 eV

  energy without entropy =      -32.22513984  energy(sigma->0) =      -32.26030446


--------------------------------------------------------------------------------------------------------




--------------------------------------- Iteration      1(  10)  ---------------------------------------


    POTLOK:  cpu time    0.0048: real time    0.0048
    SETDIJ:  cpu time    0.0039: real time    0.0039
     EDDAV:  cpu time    0.1237: real time    0.1237
       DOS:  cpu time    0.0010: real time    0.0010
    CHARGE:  cpu time    0.0071: real time    0.0071
    MIXING:  cpu time    0.0003: real time    0.0003
    --------------------------------------------
      LOOP:  cpu time    0.1408: real time    0.1408

 eigenvalue-minimisations  :   880
 total energy-change (2. order) :-0.3417645E-04  (-0.4487325E-04)
 number of electron      32.0001023 magnetization 
 augmentation part       16.4464235 magnetization 

 Broyden mixing:
  rms(total) = 0.42780E-02    rms(broyden)= 0.42776E-02
  rms(prec ) = 0.57719E-02
  weight for this iteration     100.00

 eigenvalues of (default mixing * dielectric matrix)
  average eigenvalue GAMMA=   1.7020
  2.8254  2.8254  1.1332  0.9288  0.7971

 Free energy of the ion-electron system (eV)
  ---------------------------------------------------
  alpha Z        PSCENC =       270.44909666
  Ewald energy   TEWEN  =     -2452.97223925
  -Hartree energ DENC   =      -345.21554358
  -exchange      EXHF   =         0.00000000
  -V(xc)+E(xc)   XCENC  =        13.70526162
  PAW double counting   =      2939.97633761    -2975.21554743
  entropy T*S    EENTRO =        -0.05281342
  eigenvalues    EBANDS =       139.89381726
  atomic energy  EATOM  =      2377.15370958
  Solvation  Ediel_sol  =         0.00000000
  ---------------------------------------------------
  free energy    TOTEN  =       -32.27792094 eV

  energy without entropy =      -32.22510752  energy(sigma->0) =      -32.26031647


--------------------------------------------------------------------------------------------------------




--------------------------------------- Iteration      1(  11)  ---------------------------------------


    POTLOK:  cpu time    0.0049: real time    0.0049
    SETDIJ:  cpu time    0.0040: real time    0.0040
     EDDAV:  cpu time    0.1269: real time    0.1269
       DOS:  cpu time    0.0011: real time    0.0011
    CHARGE:  cpu time    0.0071: real time    0.0071
    MIXING:  cpu time    0.0003: real time    0.0003
    --------------------------------------------
      LOOP:  cpu time    0.1441: real time    0.1442

 eigenvalue-minimisations  :   936
 total energy-change (2. order) :-0.1187325E-05  (-0.3751341E-06)
 number of electron      32.0001023 magnetization 
 augmentation part       16.4461277 magnetization 

 Broyden mixing:
  rms(total) = 0.23469E-02    rms(broyden)= 0.23452E-02
  rms(prec ) = 0.44782E-02
  weight for this iteration     100.00

 eigenvalues of (default mixing * dielectric matrix)
  average eigenvalue GAMMA=   1.5038
  2.5577  2.5577  1.2072  0.7973  1.0136  0.8894

 Free energy of the ion-electron system (eV)
  ---------------------------------------------------
  alpha Z        PSCENC =       270.44909666
  Ewald energy   TEWEN  =     -2452.97223925
  -Hartree energ DENC   =      -345.51274687
  -exchange      EXHF   =         0.00000000
  -V(xc)+E(xc)   XCENC  =        13.71766469
  PAW double counting   =      2935.16728032    -2970.10287637
  entropy T*S    EENTRO =        -0.05276386
  eigenvalues    EBANDS =       139.87495298
  atomic energy  EATOM  =      2377.15370958
  Solvation  Ediel_sol  =         0.00000000
  ---------------------------------------------------
  free energy    TOTEN  =       -32.27792213 eV

  energy without entropy =      -32.22515827  energy(sigma->0) =      -32.26033417


--------------------------------------------------------------------------------------------------------




--------------------------------------- Iteration      1(  12)  ---------------------------------------


    POTLOK:  cpu time    0.0048: real time    0.0048
    SETDIJ:  cpu time    0.0039: real time    0.0039
     EDDAV:  cpu time    0.1223: real time    0.1223
       DOS:  cpu time    0.0010: real time    0.0010
    CHARGE:  cpu time    0.0071: real time    0.0071
    MIXING:  cpu time    0.0003: real time    0.0003
    --------------------------------------------
      LOOP:  cpu time    0.1394: real time    0.1394

 eigenvalue-minimisations  :   896
 total energy-change (2. order) : 0.6263897E-05  (-0.4413681E-06)
 number of electron      32.0001023 magnetization 
 augmentation part       16.4462741 magnetization 

 Broyden mixing:
  rms(total) = 0.17275E-03    rms(broyden)= 0.17270E-03
  rms(prec ) = 0.26769E-03
  weight for this iteration     100.00

 eigenvalues of (default mixing * dielectric matrix)
  average eigenvalue GAMMA=   1.4761
  2.5587  2.5587  1.3601  0.7971  0.9595  1.0491  1.0491

 Free energy of the ion-electron system (eV)
  ---------------------------------------------------
  alpha Z        PSCENC =       270.44909666
  Ewald energy   TEWEN  =     -2452.97223925
  -Hartree energ DENC   =      -345.37168798
  -exchange      EXHF   =         0.00000000
  -V(xc)+E(xc)   XCENC  =        13.71243748
  PAW double counting   =      2940.15584592    -2975.23515193
  entropy T*S    EENTRO =        -0.05277013
  eigenvalues    EBANDS =       139.88284379
  atomic energy  EATOM  =      2377.15370958
  Solvation  Ediel_sol  =         0.00000000
  ---------------------------------------------------
  free energy    TOTEN  =       -32.27791586 eV

  energy without entropy =      -32.22514573  energy(sigma->0) =      -32.26032582


--------------------------------------------------------------------------------------------------------




--------------------------------------- Iteration      1(  13)  ---------------------------------------


    POTLOK:  cpu time    0.0048: real time    0.0048
    SETDIJ:  cpu time    0.0039: real time    0.0039
     EDDAV:  cpu time    0.0823: real time    0.0823
       DOS:  cpu time    0.0010: real time    0.0010
    --------------------------------------------
      LOOP:  cpu time    0.0920: real time    0.0921

 eigenvalue-minimisations  :   480
 total energy-change (2. order) :-0.9320602E-06  (-0.8022717E-08)
 number of electron      32.0001023 magnetization 
 augmentation part       16.4462741 magnetization 

 Free energy of the ion-electron system (eV)
  ---------------------------------------------------
  alpha Z        PSCENC =       270.44909666
  Ewald energy   TEWEN  =     -2452.97223925
  -Hartree energ DENC   =      -345.36608315
  -exchange      EXHF   =         0.00000000
  -V(xc)+E(xc)   XCENC  =        13.71222859
  PAW double counting   =      2940.38549533    -2975.46992645
  entropy T*S    EENTRO =        -0.05276654
  eigenvalues    EBANDS =       139.88256842
  atomic energy  EATOM  =      2377.15370958
  Solvation  Ediel_sol  =         0.00000000
  ---------------------------------------------------
  free energy    TOTEN  =       -32.27791680 eV

  energy without entropy =      -32.22515026  energy(sigma->0) =      -32.26032795


--------------------------------------------------------------------------------------------------------




 average (electrostatic) potential at core
  the test charge radii are     1.0103
  (the norm of the test charge is              1.0000)
       1 -42.6711       2 -42.6711       3 -42.6711       4 -42.6711
 
 
 
 E-fermi :   6.8120     XC(G=0): -13.7781     alpha+bet :-15.1637

 Fermi energy:         6.8119828203

 k-point     1 :       0.0000    0.0000    0.0000
  band No.  band energies     occupation 
      1      -2.0271      2.00000
      2       1.8672      2.00000
      3       1.8672      2.00000
      4       1.8672      2.00000
      5       2.6078      2.00000
      6       2.6078      2.00000
      7       2.6078      2.00000
      8       5.1774      2.00000
      9       5.1774      2.00000
     10       5.1774      2.00000
     11       6.7393      1.57237
     12       6.7393      1.57237
     13       7.7768     -0.00000
     14       7.7768     -0.00000
     15       7.7768     -0.00000
     16       8.0756     -0.00000
     17       8.0756     -0.00000
     18       8.0756     -0.00000
     19       8.0756     -0.00000
     20       8.0756     -0.00000
     21       8.0756     -0.00000
     22      10.0783     -0.00000
     23      10.0783     -0.00000
     24      10.0783     -0.00000
     25      18.5770      0.00000
     26      18.5770      0.00000
     27      18.5770      0.00000
     28      23.0864      0.00000
     29      23.0864      0.00000
     30      23.0864      0.00000
     31      23.0864      0.00000
     32      23.0864      0.00000
     33      23.0864      0.00000
     34      28.5121      0.00000
     35      28.5121      0.00000
     36      28.5121      0.00000
     37      30.1497      0.00000
     38      33.4320      0.00000
     39      33.4320      0.00000
     40      33.4320      0.00000

 k-point     2 :       0.2000    0.0000    0.0000
  band No.  band energies     occupation 
      1      -1.4658      2.00000
      2       1.9673      2.00000
      3       2.2018      2.00000
      4       2.2018      2.00000
      5       2.8248      2.00000
      6       2.8657      2.00000
      7       2.8657      2.00000
      8       4.8985      2.00000
      9       5.3846      2.00000
     10       5.3846      2.00000
     11       6.4823      2.04170
     12       6.6213      2.03918
     13       6.6213      2.03918
     14       6.8346      0.80984
     15       7.4399     -0.00008
     16       7.4399     -0.00008
     17       7.6737     -0.00000
     18       7.6961     -0.00000
     19       7.6961     -0.00000
     20       8.0767     -0.00000
     21       8.0767     -0.00000
     22       8.2469     -0.00000
     23      11.9253     -0.00000
     24      11.9253     -0.00000
     25      18.5736      0.00000
     26      18.5736      0.00000
     27      21.1021      0.00000
     28      21.1021      0.00000
     29      21.1321      0.00000
     30      22.0132      0.00000
     31      22.0132      0.00000
     32      24.0148      0.00000
     33      24.0148      0.00000
     34      28.5760      0.00000
     35      29.8007      0.00000
     36      31.0027      0.00000
     37      31.0027      0.00000
     38      33.1661      0.00000
     39      33.3679      0.00000
     40      33.3679      0.00000

 k-point     3 :       0.4000    0.0000    0.0000
  band No.  band energies     occupation 
      1       0.0466      2.00000
      2       1.6417      2.00000
      3       2.8825      2.00000
      4       2.8825      2.00000
      5       3.4176      2.00000
      6       3.6375      2.00000
      7       3.6375      2.00000
      8       4.2060      2.00000
      9       4.9109      2.00000
     10       4.9109      2.00000
     11       5.9350      2.00000
     12       5.9775      2.00000
     13       5.9775      2.00000
     14       6.0885      2.00000
     15       6.7408      1.56220
     16       6.7408      1.56220
     17       6.8429      0.74139
     18       6.8429      0.74139
     19       7.0867     -0.06540
     20       7.4076     -0.00021
     21       8.0775     -0.00000
     22       8.0775     -0.00000
     23      14.7917      0.00000
     24      14.7917      0.00000
     25      17.9280      0.00000
     26      17.9280      0.00000
     27      18.5822      0.00000
     28      18.5822      0.00000
     29      20.7273      0.00000
     30      20.7273      0.00000
     31      25.6851      0.00000
     32      26.4654      0.00000
     33      26.4654      0.00000
     34      28.8014      0.00000
     35      29.2079      0.00000
     36      29.7362      0.00000
     37      29.7945      0.00000
     38      29.7945      0.00000
     39      34.9675      0.00000
     40      35.6948      0.00000

 k-point     4 :       0.2000    0.2000    0.0000
  band No.  band energies     occupation 
      1      -0.9303      2.00000
      2       2.3288      2.00000
      3       2.3288      2.00000
      4       2.4988      2.00000
      5       3.0568      2.00000
      6       3.0568      2.00000
      7       3.0752      2.00000
      8       4.7750      2.00000
      9       5.4518      2.00000
     10       5.4749      2.00000
     11       6.0439      2.00000
     12       6.0479      2.00000
     13       6.0479      2.00000
     14       6.4374      2.02357
     15       6.8637      0.57820
     16       7.1842     -0.02438
     17       7.3995     -0.00026
     18       7.3995     -0.00026
     19       7.6934     -0.00000
     20       7.6934     -0.00000
     21       7.8283     -0.00000
     22      10.0966     -0.00000
     23      10.0966     -0.00000
     24      13.1523      0.00000
     25      17.3713      0.00000
     26      19.2016      0.00000
     27      21.1480      0.00000
     28      21.1480      0.00000
     29      21.8644      0.00000
     30      21.8644      0.00000
     31      22.9601      0.00000
     32      22.9601      0.00000
     33      24.8688      0.00000
     34      28.3460      0.00000
     35      29.6281      0.00000
     36      30.0605      0.00000
     37      31.2541      0.00000
     38      31.2541      0.00000
     39      34.3223      0.00000
     40      36.0919      0.00000

 k-point     5 :       0.4000    0.2000    0.0000
  band No.  band energies     occupation 
      1       0.5091      2.00000
      2       2.0460      2.00000
      3       3.1095      2.00000
      4       3.1734      2.00000
      5       3.5737      2.00000
      6       3.5981      2.00000
      7       3.7422      2.00000
      8       4.2444      2.00000
      9       4.5439      2.00000
     10       4.8224      2.00000
     11       5.2375      2.00000
     12       5.4233      2.00000
     13       5.9980      2.00000
     14       6.2988      2.00172
     15       6.6339      2.01939
     16       6.7358      1.59555
     17       6.8406      0.76038
     18       6.9045      0.30209
     19       7.3288     -0.00158
     20       7.6886     -0.00000
     21       7.7041     -0.00000
     22       8.1754     -0.00000
     23      12.2784      0.00000
     24      14.6042      0.00000
     25      15.6822      0.00000
     26      18.6886      0.00000
     27      19.4632      0.00000
     28      20.3603      0.00000
     29      22.8089      0.00000
     30      23.7563      0.00000
     31      24.0181      0.00000
     32      24.2481      0.00000
     33      26.0664      0.00000
     34      26.5742      0.00000
     35      26.9774      0.00000
     36      32.0785      0.00000
     37      32.2578      0.00000
     38      33.2817      0.00000
     39      33.4997      0.00000
     40      36.0504      0.00000

 k-point     6 :       0.4000    0.4000    0.0000
  band No.  band energies     occupation 
      1       1.7032      2.00000
      2       2.9611      2.00000
      3       2.9611      2.00000
      4       3.4726      2.00000
      5       3.8601      2.00000
      6       3.9953      2.00000
      7       3.9953      2.00000
      8       4.2177      2.00000
      9       4.4291      2.00000
     10       4.4291      2.00000
     11       4.5000      2.00000
     12       5.0629      2.00000
     13       6.0400      2.00000
     14       6.2389      2.00039
     15       6.2821      2.00116
     16       6.3677      2.00734
     17       6.3677      2.00734
     18       6.8886      0.40126
     19       6.8886      0.40126
     20       7.1433     -0.04095
     21       8.2472     -0.00000
     22       9.7015     -0.00000
     23       9.7015     -0.00000
     24      11.6622     -0.00000
     25      17.8206      0.00000
     26      20.2914      0.00000
     27      20.5969      0.00000
     28      20.5969      0.00000
     29      21.8002      0.00000
     30      21.8002      0.00000
     31      23.1165      0.00000
     32      23.8220      0.00000
     33      28.0581      0.00000
     34      28.0581      0.00000
     35      29.2573      0.00000
     36      30.7947      0.00000
     37      33.2686      0.00000
     38      34.7857      0.00000
     39      35.8367      0.00000
     40      35.8367      0.00000

 k-point     7 :       0.2000    0.2000    0.2000
  band No.  band energies     occupation 
      1      -0.4377      2.00000
      2       2.6009      2.00000
      3       2.6009      2.00000
      4       2.6009      2.00000
      5       3.2574      2.00000
      6       3.2574      2.00000
      7       3.2574      2.00000
      8       4.7236      2.00000
      9       5.4647      2.00000
     10       5.4647      2.00000
     11       5.6249      2.00000
     12       5.6249      2.00000
     13       5.6249      2.00000
     14       6.7115      1.74307
     15       6.7115      1.74307
     16       6.7677      1.36505
     17       6.7677      1.36505
     18       6.7677      1.36505
     19       7.9112     -0.00000
     20       7.9112     -0.00000
     21       7.9112     -0.00000
     22      10.9214     -0.00000
     23      10.9214     -0.00000
     24      10.9214     -0.00000
     25      18.4581      0.00000
     26      18.4581      0.00000
     27      18.4581      0.00000
     28      21.8419      0.00000
     29      21.8419      0.00000
     30      21.8419      0.00000
     31      25.5641      0.00000
     32      25.6545      0.00000
     33      25.6545      0.00000
     34      25.6545      0.00000
     35      30.2131      0.00000
     36      30.2131      0.00000
     37      30.2131      0.00000
     38      31.0534      0.00000
     39      34.6537      0.00000
     40      34.6537      0.00000

 k-point     8 :       0.4000    0.2000    0.2000
  band No.  band energies     occupation 
      1       0.8645      2.00000
      2       2.2478      2.00000
      3       3.1924      2.00000
      4       3.1924      2.00000
      5       3.6491      2.00000
      6       3.6491      2.00000
      7       3.8055      2.00000
      8       4.3852      2.00000
      9       4.8242      2.00000
     10       4.8242      2.00000
     11       5.0757      2.00000
     12       5.3479      2.00000
     13       5.6375      2.00000
     14       6.1121      2.00001
     15       6.3373      2.00400
     16       6.3373      2.00400
     17       6.8723      0.51438
     18       7.2593     -0.00692
     19       7.7347     -0.00000
     20       7.7347     -0.00000
     21       7.7355     -0.00000
     22       8.3020     -0.00000
     23      12.3885      0.00000
     24      12.3885      0.00000
     25      15.9339      0.00000
     26      15.9339      0.00000
     27      20.2994      0.00000
     28      22.6107      0.00000
     29      22.6107      0.00000
     30      22.6926      0.00000
     31      24.8969      0.00000
     32      24.8969      0.00000
     33      26.4792      0.00000
     34      27.8430      0.00000
     35      29.5268      0.00000
     36      31.0395      0.00000
     37      31.0964      0.00000
     38      33.3502      0.00000
     39      33.3502      0.00000
     40      34.6477      0.00000

 k-point     9 :       0.4000    0.4000    0.2000
  band No.  band energies     occupation 
      1       1.7138      2.00000
      2       2.5959      2.00000
      3       2.5959      2.00000
      4       2.9058      2.00000
      5       4.1578      2.00000
      6       4.3586      2.00000
      7       4.3586      2.00000
      8       4.7073      2.00000
      9       4.8905      2.00000
     10       4.8905      2.00000
     11       5.0769      2.00000
     12       5.1492      2.00000
     13       5.4763      2.00000
     14       5.7864      2.00000
     15       5.7864      2.00000
     16       5.8183      2.00000
     17       6.9455      0.10376
     18       7.4871     -0.00002
     19       7.4871     -0.00002
     20       7.5378     -0.00000
     21       8.0122     -0.00000
     22       9.5314     -0.00000
     23       9.5314     -0.00000
     24      11.1651     -0.00000
     25      15.6511      0.00000
     26      17.4934      0.00000
     27      17.4934      0.00000
     28      19.7591      0.00000
     29      23.8070      0.00000
     30      25.5423      0.00000
     31      25.5423      0.00000
     32      27.5826      0.00000
     33      28.5200      0.00000
     34      28.5200      0.00000
     35      29.7797      0.00000
     36      30.7637      0.00000
     37      32.4232      0.00000
     38      33.6836      0.00000
     39      33.6836      0.00000
     40      35.1684      0.00000

 k-point    10 :       0.4000    0.4000    0.4000
  band No.  band energies     occupation 
      1       1.8310      2.00000
      2       2.2207      2.00000
      3       2.2207      2.00000
      4       2.2207      2.00000
      5       4.8013      2.00000
      6       4.8013      2.00000
      7       4.8013      2.00000
      8       5.1743      2.00000
      9       5.1743      2.00000
     10       5.3091      2.00000
     11       5.3091      2.00000
     12       5.3091      2.00000
     13       5.8612      2.00000
     14       5.8612      2.00000
     15       5.8612      2.00000
     16       5.9428      2.00000
     17       7.5926     -0.00000
     18       7.5926     -0.00000
     19       7.8178     -0.00000
     20       7.8178     -0.00000
     21       7.8178     -0.00000
     22       9.1014     -0.00000
     23       9.1014     -0.00000
     24       9.1014     -0.00000
     25      15.4381      0.00000
     26      15.4381      0.00000
     27      15.4381      0.00000
     28      17.0330      0.00000
     29      27.7667      0.00000
     30      27.7667      0.00000
     31      27.7667      0.00000
     32      29.0876      0.00000
     33      31.3632      0.00000
     34      31.3632      0.00000
     35      31.3632      0.00000
     36      31.8555      0.00000
     37      31.8555      0.00000
     38      31.8555      0.00000
     39      33.9586      0.00000
     40      33.9586      0.00000


--------------------------------------------------------------------------------------------------------


 soft charge-density along one line, spin component           1
         0         1         2         3         4         5         6         7         8         9
x    15.5538    0.0000    0.0000   -0.0000   -0.2571   -0.0000   -0.0000    0.0000   -0.1417   -0.0000
x     0.0000    0.0000    0.0367   -0.0000    0.0000    0.0000
y    15.5538    0.0000    0.0000   -0.0000   -0.2571   -0.0000   -0.0000    0.0000   -0.1417   -0.0000
y     0.0000    0.0000    0.0367   -0.0000    0.0000    0.0000
z    15.5538    0.0000    0.0000   -0.0000   -0.2571   -0.0000   -0.0000    0.0000   -0.1417   -0.0000
z     0.0000    0.0000    0.0367   -0.0000    0.0000    0.0000
 total charge-density along one line
x    32.0001    0.0000    0.0000    0.0000    9.1059    0.0000   -0.0000    0.0000    1.0556   -0.0000
x     0.0000    0.0000   -0.0030    0.0000    0.0000    0.0000    0.0102    0.0000   -0.0000   -0.0000
x    -0.0013    0.0000   -0.0000    0.0000   -0.0005    0.0000    0.0000    0.0000    0.0009    0.0000
y    32.0001    0.0000    0.0000    0.0000    9.1059    0.0000   -0.0000    0.0000    1.0556   -0.0000
y     0.0000    0.0000   -0.0030   -0.0000   -0.0000    0.0000    0.0102   -0.0000   -0.0000   -0.0000
y    -0.0013    0.0000   -0.0000    0.0000   -0.0005   -0.0000    0.0000   -0.0000    0.0009    0.0000
z    32.0001    0.0000    0.0000    0.0000    9.1059    0.0000   -0.0000    0.0000    1.0556   -0.0000
z    -0.0000    0.0000   -0.0030    0.0000   -0.0000   -0.0000    0.0102    0.0000   -0.0000   -0.0000
z    -0.0013    0.0000   -0.0000   -0.0000   -0.0005   -0.0000   -0.0000   -0.0000    0.0009   -0.0000
 
 pseudopotential strength for first ion, spin component:           1
 -4.470   0.000  -0.000   0.000  -0.000  -5.033   0.000  -0.000
  0.000  -4.470   0.000   0.000  -0.000   0.000  -5.033   0.000
 -0.000   0.000  -4.451   0.000  -0.000  -0.000   0.000  -5.015
  0.000   0.000   0.000  -4.470   0.000   0.000   0.000   0.000
 -0.000  -0.000  -0.000   0.000  -4.451  -0.000  -0.000  -0.000
 -5.033   0.000  -0.000   0.000  -0.000  -5.553   0.000  -0.000
  0.000  -5.033   0.000   0.000  -0.000   0.000  -5.553   0.000
 -0.000   0.000  -5.015   0.000  -0.000  -0.000   0.000  -5.535
  0.000   0.000   0.000  -5.033   0.000   0.000   0.000   0.000
 -0.000  -0.000  -0.000   0.000  -5.015  -0.000  -0.000  -0.000
 -0.000  -0.000  -0.000  -0.000  -0.000  -0.000  -0.000  -0.000
 -0.000  -0.000  -0.000  -0.000  -0.000  -0.000  -0.000  -0.000
  0.000   0.000   0.000   0.000   0.000   0.000   0.000   0.000
  0.000   0.000   0.000   0.000  -0.000   0.000   0.000   0.000
  0.000   0.000  -0.000   0.000   0.000   0.000   0.000  -0.000
  0.000   0.000   0.000   0.000   0.000   0.000   0.000   0.000
  0.000   0.000   0.000   0.000  -0.000   0.000   0.000   0.000
  0.000   0.000  -0.000   0.000   0.000   0.000   0.000  -0.000
 total augmentation occupancy for first ion, spin component:           1
  1.319  -0.000   0.000  -0.000  -0.000  -0.724  -0.000   0.000   0.000   0.000  -0.000   0.000   0.000   0.000   0.000   0.000
  0.000   1.319  -0.000   0.000  -0.000  -0.000  -0.724   0.000   0.000   0.000  -0.000   0.000   0.000   0.000   0.000   0.000
 -0.000  -0.000   2.424  -0.000   0.000   0.000  -0.000  -1.365  -0.000  -0.000   0.000   0.000  -0.000   0.000   0.000   0.000
  0.000  -0.000  -0.000   1.319  -0.000  -0.000  -0.000   0.000  -0.724   0.000   0.000  -0.000  -0.000   0.000   0.000   0.000
  0.000  -0.000   0.000  -0.000   2.424  -0.000   0.000  -0.000   0.000  -1.365   0.000  -0.000   0.000   0.000  -0.000   0.000
 -0.724  -0.000   0.000   0.000  -0.000   1.455   0.000   0.000   0.000   0.000   0.000   0.000  -0.000  -0.000   0.000  -0.000
  0.000  -0.724  -0.000  -0.000   0.000  -0.000   1.455  -0.000   0.000  -0.000   0.000  -0.000   0.000   0.000  -0.000   0.000
 -0.000   0.000  -1.365   0.000  -0.000   0.000  -0.000   1.692  -0.000   0.000  -0.000   0.000  -0.000   0.000   0.000  -0.000
  0.000   0.000  -0.000  -0.724  -0.000  -0.000   0.000  -0.000   1.455  -0.000   0.000  -0.000  -0.000   0.000   0.000   0.000
  0.000  -0.000  -0.000   0.000  -1.365  -0.000  -0.000  -0.000  -0.000   1.692   0.000   0.000  -0.000   0.000   0.000  -0.000
  0.000  -0.000   0.000   0.000   0.000  -0.000   0.000  -0.000   0.000   0.000   2.655  -0.304   0.000   0.000   0.000   0.000
  0.000   0.000  -0.000  -0.000  -0.000  -0.000   0.000   0.000  -0.000   0.000  -0.304   0.039  -0.000   0.000   0.000   0.000
 -0.000   0.000   0.000  -0.000  -0.000   0.000   0.000  -0.000   0.000   0.000  -0.000   0.000   0.343   0.000  -0.000  -0.029
  0.000  -0.000  -0.000   0.000   0.000   0.000  -0.000  -0.000  -0.000  -0.000   0.000  -0.000  -0.000   0.343   0.000  -0.000
 -0.000   0.000   0.000   0.000  -0.000   0.000  -0.000   0.000   0.000  -0.000  -0.000   0.000  -0.000   0.000   0.343   0.000
 -0.000  -0.000   0.000   0.000   0.000  -0.000  -0.000  -0.000   0.000  -0.000  -0.000  -0.000  -0.029  -0.000   0.000   0.003
 -0.000  -0.000   0.000   0.000   0.000   0.000   0.000  -0.000   0.000  -0.000  -0.000   0.000   0.000  -0.029   0.000   0.000
  0.000   0.000   0.000  -0.000  -0.000  -0.000  -0.000   0.000   0.000   0.000   0.000  -0.000  -0.000  -0.000  -0.029   0.000


------------------------ aborting loop because EDIFF is reached ----------------------------------------


    CHARGE:  cpu time    0.0070: real time    0.0070
    FORLOC:  cpu time    0.0004: real time    0.0004
    FORNL :  cpu time    0.0432: real time    0.0433
    STRESS:  cpu time    0.0530: real time    0.0530
    FORCOR:  cpu time    0.0051: real time    0.0051
    FORHAR:  cpu time    0.0012: real time    0.0012
    MIXING:  cpu time    0.0003: real time    0.0003

  FORCE on cell =-STRESS in cart. coord.  units (eV):
  Direction    XX          YY          ZZ          XY          YZ          ZX
  --------------------------------------------------------------------------------------
  Alpha Z   270.44910   270.44910   270.44910
  Ewald    -817.65777  -817.65777  -817.65777    -0.00000    -0.00000    -0.00000
  Hartree   115.12165   115.12165   115.12165    -0.00000    -0.00000    -0.00000
  E(xc)    -156.86272  -156.86272  -156.86272     0.00000     0.00000    -0.00000
  Local     244.66828   244.66828   244.66828     0.00000     0.00000    -0.00000
  n-local  -107.88437  -106.41458  -101.62967     3.65282     1.02282     1.35742
  augment   151.84599   151.84599   151.84599     0.00000     0.00000    -0.00000
  Kinetic   312.67878   294.08200   286.50808     2.58473     5.12225     4.01042
  Fock        0.00000     0.00000     0.00000     0.00000     0.00000     0.00000
  -------------------------------------------------------------------------------------
  Total       0.01128     0.01128     0.01128     0.00000     0.00000    -0.00000
  in kB       0.44190     0.44190     0.44190     0.00000     0.00000    -0.00000
  external pressure =        0.44 kB  Pullay stress =        0.00 kB


 VOLUME and BASIS-vectors are now :
 -----------------------------------------------------------------------------
  energy-cutoff  :      290.00
  volume of cell :       40.89
      direct lattice vectors                 reciprocal lattice vectors
     3.445083000  0.000000000  0.000000000     0.290268769  0.000000000  0.000000000
     0.000000000  3.445083000  0.000000000     0.000000000  0.290268769  0.000000000
     0.000000000  0.000000000  3.445083000     0.000000000  0.000000000  0.290268769

  length of vectors
     3.445083000  3.445083000  3.445083000     0.290268769  0.290268769  0.290268769


 FORCES acting on ions
    electron-ion (+dipol)            ewald-force                    non-local-force                 convergence-correction
 -----------------------------------------------------------------------------------------------
   -.576E-13 -.115E-13 -.670E-14   0.950E-15 -.636E-14 -.192E-14   0.175E-23 0.241E-23 -.284E-23   -.419E-13 0.119E-13 0.705E-15
   0.142E-12 0.175E-12 -.656E-14   -.151E-14 0.210E-14 -.192E-14   -.105E-24 -.500E-24 -.480E-24   -.383E-13 -.130E-13 0.431E-14
   0.140E-12 -.116E-13 0.191E-12   0.725E-14 -.267E-14 0.266E-14   -.261E-23 0.324E-24 0.474E-24   -.377E-13 0.707E-14 -.239E-14
   -.571E-13 0.177E-12 0.190E-12   -.832E-14 0.579E-14 0.266E-14   -.551E-24 -.206E-23 -.115E-23   -.477E-13 -.371E-14 -.889E-14
 -----------------------------------------------------------------------------------------------
   0.167E-12 0.329E-12 0.367E-12   -.163E-14 -.114E-14 0.147E-14   -.152E-23 0.175E-24 -.399E-23   -.166E-12 0.231E-14 -.626E-14
 
 
 POSITION                                       TOTAL-FORCE (eV/Angst)
 -----------------------------------------------------------------------------------
      0.00000      0.00000      0.00000         0.000000     -0.000000     -0.000000
      1.72254      1.72254      0.00000         0.000000      0.000000     -0.000000
      1.72254      0.00000      1.72254        -0.000000      0.000000     -0.000000
      0.00000      1.72254      1.72254         0.000000     -0.000000      0.000000
 -----------------------------------------------------------------------------------
    total drift:                                0.000000      0.000000      0.000000


--------------------------------------------------------------------------------------------------------



  FREE ENERGIE OF THE ION-ELECTRON SYSTEM (eV)
  ---------------------------------------------------
  free  energy   TOTEN  =       -32.27791680 eV

  energy  without entropy=      -32.22515026  energy(sigma->0) =      -32.26032795
 


--------------------------------------------------------------------------------------------------------


    POTLOK:  cpu time    0.0088: real time    0.0088


--------------------------------------------------------------------------------------------------------


 writing wavefunctions
     LOOP+:  cpu time    1.9228: real time    1.9418
    4ORBIT:  cpu time    0.0000: real time    0.0000

 total amount of memory used by VASP MPI-rank0    35389. kBytes
=======================================================================

   base      :      30000. kBytes
   nonl-proj :        694. kBytes
   grid      :       1216. kBytes
   one-center:         62. kBytes
   wavefun   :       3417. kBytes
 
  
  
 General timing and accounting informations for this job:
 ========================================================
  
                  Total CPU time used (sec):        2.053
                            User time (sec):        2.029
                          System time (sec):        0.024
                         Elapsed time (sec):        2.060
  
                   Maximum memory used (kb):       40872.
                   Average memory used (kb):          N/A
  
                          Minor page faults:         3668
                          Major page faults:            0
                 Voluntary context switches:           26
