   2   2   0   0
  0.9071386E+01  0.2306700E-09  0.2306700E-09  0.3937230E-09  0.5000000E-15
  1.000000000000000E-004
  CAR 
 unknown system                          
     77.28178285     -5.02427420  301      8.26770742      1.00000000
     -5.024  0.0000E+00  0.0000E+00
     -4.750  0.0000E+00  0.0000E+00
     -4.476  0.0000E+00  0.0000E+00
     -4.201  0.0000E+00  0.0000E+00
     -3.927  0.0000E+00  0.0000E+00
     -3.653  0.0000E+00  0.0000E+00
     -3.378  0.0000E+00  0.0000E+00
     -3.104 -0.1433E-37 -0.3931E-38
     -2.829 -0.1305E-27 -0.3580E-28
     -2.555 -0.2676E-19 -0.7341E-20
     -2.281 -0.1177E-12 -0.3230E-13
     -2.006 -0.1153E-07 -0.3165E-08
     -1.732 -0.2323E-04 -0.6376E-05
     -1.458 -0.4117E-03 -0.1193E-03
     -1.183  0.8354E-02  0.2172E-02
     -0.909  0.4727E-01  0.1514E-01
     -0.635  0.9054E-01  0.3998E-01
     -0.360  0.5771E-01  0.5581E-01
     -0.086  0.1330E+00  0.9231E-01
      0.188  0.1695E+00  0.1388E+00
      0.463  0.1656E+00  0.1842E+00
      0.737  0.9395E-01  0.2100E+00
      1.012  0.1957E+00  0.2637E+00
      1.286  0.3198E+00  0.3515E+00
      1.560  0.2514E+00  0.4204E+00
      1.835  0.3076E+00  0.5048E+00
      2.109  0.2064E+00  0.5614E+00
      2.383  0.4921E+00  0.6964E+00
      2.658  0.1179E+01  0.1020E+01
      2.932  0.1641E+01  0.1470E+01
      3.206  0.1753E+01  0.1951E+01
      3.481  0.2823E+01  0.2725E+01
      3.755  0.2186E+01  0.3325E+01
      4.029  0.2580E+01  0.4033E+01
      4.304  0.1868E+01  0.4545E+01
      4.578  0.2846E+01  0.5326E+01
      4.852  0.2678E+01  0.6061E+01
      5.127  0.2757E+01  0.6817E+01
      5.401  0.2243E+01  0.7433E+01
      5.676  0.1768E+01  0.7918E+01
      5.950  0.2933E+01  0.8723E+01
      6.224  0.3506E+01  0.9685E+01
      6.499  0.3395E+01  0.1062E+02
      6.773  0.3533E+01  0.1159E+02
      7.047  0.3805E+01  0.1263E+02
      7.322  0.3345E+01  0.1355E+02
      7.596  0.2500E+01  0.1423E+02
      7.870  0.2449E+01  0.1490E+02
      8.145  0.2865E+01  0.1569E+02
      8.419  0.2208E+01  0.1630E+02
      8.693  0.2095E+01  0.1687E+02
      8.968  0.3836E+01  0.1792E+02
      9.242  0.4534E+01  0.1917E+02
      9.516  0.4484E+01  0.2040E+02
      9.791  0.2762E+01  0.2116E+02
     10.065  0.3251E+00  0.2124E+02
     10.340  0.8536E-01  0.2127E+02
     10.614  0.8062E+00  0.2149E+02
     10.888  0.8393E+00  0.2172E+02
     11.163  0.5437E+00  0.2187E+02
     11.437  0.3064E+00  0.2195E+02
     11.711  0.6821E+00  0.2214E+02
     11.986  0.3558E+00  0.2224E+02
     12.260  0.2086E+00  0.2229E+02
     12.534  0.3918E+00  0.2240E+02
     12.809  0.8286E+00  0.2263E+02
     13.083  0.4992E+00  0.2277E+02
     13.357  0.2845E+00  0.2284E+02
     13.632  0.2539E+00  0.2291E+02
     13.906  0.4214E+00  0.2303E+02
     14.180  0.4447E+00  0.2315E+02
     14.455  0.4117E+00  0.2327E+02
     14.729  0.2212E+00  0.2333E+02
     15.004  0.3180E+00  0.2341E+02
     15.278  0.2559E+00  0.2348E+02
     15.552  0.4085E+00  0.2360E+02
     15.827  0.3932E+00  0.2370E+02
     16.101  0.5181E+00  0.2385E+02
     16.375  0.1136E+00  0.2388E+02
     16.650  0.6219E-01  0.2389E+02
     16.924  0.1494E+00  0.2393E+02
     17.198  0.1063E+00  0.2396E+02
     17.473  0.1750E+00  0.2401E+02
     17.747  0.2209E+00  0.2407E+02
     18.021  0.2255E+00  0.2413E+02
     18.296  0.3786E+00  0.2424E+02
     18.570  0.2825E+00  0.2432E+02
     18.844  0.4176E+00  0.2443E+02
     19.119  0.7462E+00  0.2463E+02
     19.393  0.8663E+00  0.2487E+02
     19.668  0.7502E+00  0.2508E+02
     19.942  0.6382E+00  0.2525E+02
     20.216  0.2647E+00  0.2533E+02
     20.491  0.8445E+00  0.2556E+02
     20.765  0.4939E+00  0.2569E+02
     21.039  0.9316E+00  0.2595E+02
     21.314  0.6423E+00  0.2613E+02
     21.588  0.5249E+00  0.2627E+02
     21.862  0.7087E+00  0.2646E+02
     22.137  0.7622E+00  0.2667E+02
     22.411  0.7178E+00  0.2687E+02
     22.685  0.5699E+00  0.2703E+02
     22.960  0.7100E+00  0.2722E+02
     23.234  0.5718E+00  0.2738E+02
     23.508  0.6938E+00  0.2757E+02
     23.783  0.4626E+00  0.2769E+02
     24.057  0.4070E+00  0.2781E+02
     24.332  0.6614E+00  0.2799E+02
     24.606  0.4634E+00  0.2811E+02
     24.880  0.7631E+00  0.2832E+02
     25.155  0.5917E+00  0.2849E+02
     25.429  0.5715E+00  0.2864E+02
     25.703  0.6906E+00  0.2883E+02
     25.978  0.9969E+00  0.2911E+02
     26.252  0.7809E+00  0.2932E+02
     26.526  0.6456E+00  0.2950E+02
     26.801  0.1073E+01  0.2979E+02
     27.075  0.8072E+00  0.3001E+02
     27.349  0.5726E+00  0.3017E+02
     27.624  0.9644E+00  0.3044E+02
     27.898  0.8233E+00  0.3066E+02
     28.173  0.6279E+00  0.3083E+02
     28.447  0.9477E+00  0.3109E+02
     28.721  0.1461E+01  0.3149E+02
     28.996  0.6412E+00  0.3167E+02
     29.270  0.7399E+00  0.3187E+02
     29.544  0.9527E+00  0.3213E+02
     29.819  0.4727E+00  0.3226E+02
     30.093  0.9583E+00  0.3253E+02
     30.367  0.1142E+01  0.3284E+02
     30.642  0.8195E+00  0.3307E+02
     30.916  0.6731E+00  0.3325E+02
     31.190  0.9110E+00  0.3350E+02
     31.465  0.1020E+01  0.3378E+02
     31.739  0.9900E+00  0.3405E+02
     32.013  0.5907E+00  0.3421E+02
     32.288  0.4091E+00  0.3433E+02
     32.562  0.4515E+00  0.3445E+02
     32.837  0.1080E+01  0.3475E+02
     33.111  0.9134E+00  0.3500E+02
     33.385  0.5431E+00  0.3515E+02
     33.660  0.7006E+00  0.3534E+02
     33.934  0.6592E+00  0.3552E+02
     34.208  0.8247E+00  0.3574E+02
     34.483  0.6759E+00  0.3593E+02
     34.757  0.4548E+00  0.3605E+02
     35.031  0.4969E+00  0.3619E+02
     35.306  0.4626E+00  0.3632E+02
     35.580  0.8879E+00  0.3656E+02
     35.854  0.8105E+00  0.3678E+02
     36.129  0.8082E+00  0.3701E+02
     36.403  0.9309E+00  0.3726E+02
     36.677  0.8972E+00  0.3751E+02
     36.952  0.7333E+00  0.3771E+02
     37.226  0.6355E+00  0.3788E+02
     37.501  0.8334E+00  0.3811E+02
     37.775  0.8972E+00  0.3836E+02
     38.049  0.1082E+01  0.3865E+02
     38.324  0.9323E+00  0.3891E+02
     38.598  0.5741E+00  0.3907E+02
     38.872  0.8543E+00  0.3930E+02
     39.147  0.8894E+00  0.3955E+02
     39.421  0.9629E+00  0.3981E+02
     39.695  0.8871E+00  0.4005E+02
     39.970  0.6876E+00  0.4024E+02
     40.244  0.7918E+00  0.4046E+02
     40.518  0.9578E+00  0.4072E+02
     40.793  0.6641E+00  0.4090E+02
     41.067  0.7104E+00  0.4110E+02
     41.341  0.5618E+00  0.4125E+02
     41.616  0.9853E+00  0.4152E+02
     41.890  0.8126E+00  0.4175E+02
     42.165  0.8658E+00  0.4198E+02
     42.439  0.9433E+00  0.4224E+02
     42.713  0.8146E+00  0.4247E+02
     42.988  0.7137E+00  0.4266E+02
     43.262  0.8301E+00  0.4289E+02
     43.536  0.9183E+00  0.4314E+02
     43.811  0.1305E+01  0.4350E+02
     44.085  0.4671E+00  0.4363E+02
     44.359  0.6675E+00  0.4381E+02
     44.634  0.5090E+00  0.4395E+02
     44.908  0.7715E+00  0.4416E+02
     45.182  0.7297E+00  0.4436E+02
     45.457  0.8449E+00  0.4459E+02
     45.731  0.1101E+01  0.4490E+02
     46.005  0.1177E+01  0.4522E+02
     46.280  0.1277E+01  0.4557E+02
     46.554  0.9455E+00  0.4583E+02
     46.829  0.8555E+00  0.4606E+02
     47.103  0.8705E+00  0.4630E+02
     47.377  0.7810E+00  0.4652E+02
     47.652  0.1326E+01  0.4688E+02
     47.926  0.1192E+01  0.4721E+02
     48.200  0.8314E+00  0.4744E+02
     48.475  0.1028E+01  0.4772E+02
     48.749  0.1266E+01  0.4807E+02
     49.023  0.1171E+01  0.4839E+02
     49.298  0.7819E+00  0.4860E+02
     49.572  0.8136E+00  0.4882E+02
     49.846  0.6760E+00  0.4901E+02
     50.121  0.5311E+00  0.4916E+02
     50.395  0.9337E+00  0.4941E+02
     50.669  0.9126E+00  0.4966E+02
     50.944  0.3008E+00  0.4974E+02
     51.218  0.8549E+00  0.4998E+02
     51.493  0.9250E+00  0.5023E+02
     51.767  0.9365E+00  0.5049E+02
     52.041  0.1450E+01  0.5089E+02
     52.316  0.6186E+00  0.5106E+02
     52.590  0.1002E+01  0.5133E+02
     52.864  0.1446E+01  0.5173E+02
     53.139  0.1308E+01  0.5209E+02
     53.413  0.9346E+00  0.5234E+02
     53.687  0.7252E+00  0.5254E+02
     53.962  0.6568E+00  0.5272E+02
     54.236  0.7600E+00  0.5293E+02
     54.510  0.1111E+01  0.5324E+02
     54.785  0.1361E+01  0.5361E+02
     55.059  0.1197E+01  0.5394E+02
     55.334  0.1082E+01  0.5424E+02
     55.608  0.1069E+01  0.5453E+02
     55.882  0.1186E+01  0.5485E+02
     56.157  0.9675E+00  0.5512E+02
     56.431  0.1474E+01  0.5552E+02
     56.705  0.1169E+01  0.5585E+02
     56.980  0.1068E+01  0.5614E+02
     57.254  0.1022E+01  0.5642E+02
     57.528  0.1195E+01  0.5675E+02
     57.803  0.1226E+01  0.5708E+02
     58.077  0.1104E+01  0.5739E+02
     58.351  0.1081E+01  0.5768E+02
     58.626  0.1106E+01  0.5799E+02
     58.900  0.1461E+01  0.5839E+02
     59.174  0.1609E+01  0.5883E+02
     59.449  0.1104E+01  0.5913E+02
     59.723  0.1243E+01  0.5947E+02
     59.998  0.1497E+01  0.5988E+02
     60.272  0.1687E+01  0.6035E+02
     60.546  0.1638E+01  0.6079E+02
     60.821  0.1605E+01  0.6124E+02
     61.095  0.2084E+01  0.6181E+02
     61.369  0.2091E+01  0.6238E+02
     61.644  0.1233E+01  0.6272E+02
     61.918  0.1739E+01  0.6320E+02
     62.192  0.2040E+01  0.6376E+02
     62.467  0.2840E+01  0.6453E+02
     62.741  0.2439E+01  0.6520E+02
     63.015  0.2897E+01  0.6600E+02
     63.290  0.2066E+01  0.6657E+02
     63.564  0.1680E+01  0.6703E+02
     63.838  0.1633E+01  0.6747E+02
     64.113  0.1239E+01  0.6781E+02
     64.387  0.1143E+01  0.6813E+02
     64.662  0.2012E+01  0.6868E+02
     64.936  0.1634E+01  0.6913E+02
     65.210  0.1528E+01  0.6955E+02
     65.485  0.1674E+01  0.7001E+02
     65.759  0.1138E+01  0.7032E+02
     66.033  0.1313E+01  0.7068E+02
     66.308  0.1780E+01  0.7117E+02
     66.582  0.1542E+01  0.7159E+02
     66.856  0.1139E+01  0.7190E+02
     67.131  0.7795E+00  0.7212E+02
     67.405  0.1351E+01  0.7249E+02
     67.679  0.1698E+01  0.7295E+02
     67.954  0.1928E+01  0.7348E+02
     68.228  0.1622E+01  0.7393E+02
     68.502  0.1587E+01  0.7436E+02
     68.777  0.1606E+01  0.7480E+02
     69.051  0.1142E+01  0.7512E+02
     69.326  0.1328E+01  0.7548E+02
     69.600  0.1406E+01  0.7587E+02
     69.874  0.1510E+01  0.7628E+02
     70.149  0.1371E+01  0.7666E+02
     70.423  0.1606E+01  0.7710E+02
     70.697  0.1197E+01  0.7743E+02
     70.972  0.7646E+00  0.7764E+02
     71.246  0.2031E+01  0.7819E+02
     71.520  0.1305E+01  0.7855E+02
     71.795  0.1334E+01  0.7892E+02
     72.069  0.7110E+00  0.7911E+02
     72.343  0.8574E+00  0.7935E+02
     72.618  0.1274E+01  0.7970E+02
     72.892  0.7558E+00  0.7990E+02
     73.166  0.2194E+00  0.7996E+02
     73.441  0.7718E-01  0.7999E+02
     73.715  0.5412E-01  0.8000E+02
     73.990 -0.3339E-03  0.8000E+02
     74.264 -0.2204E-03  0.8000E+02
     74.538 -0.1297E-06  0.8000E+02
     74.813 -0.1387E-11  0.8000E+02
     75.087  0.0000E+00  0.8000E+02
     75.361  0.0000E+00  0.8000E+02
     75.636  0.0000E+00  0.8000E+02
     75.910  0.0000E+00  0.8000E+02
     76.184  0.0000E+00  0.8000E+02
     76.459  0.0000E+00  0.8000E+02
     76.733  0.0000E+00  0.8000E+02
     77.007  0.0000E+00  0.8000E+02
     77.282  0.0000E+00  0.8000E+02
