    2    2    1    1
  0.9071386E+01  0.2306700E-09  0.2306700E-09  0.3937230E-09  0.5000000E-15
  1.000000000000000E-004
  CAR 
 unknown system                          
     16     96     40
 
  0.0000000E+00  0.0000000E+00  0.0000000E+00  0.7513148E-03
    1       -1.283090   1.000000
    2        2.632361   1.000000
    3        5.931245   1.000000
    4        6.406107   1.000000
    5        6.406172   1.000000
    6        6.826157   1.000000
    7        6.826234   1.000000
    8        7.741167   1.000627
    9        7.741186   1.000627
   10        7.883766   1.010272
   11        9.157720  -0.000000
   12        9.157740  -0.000000
   13       17.210239   0.000000
   14       32.261868   0.000000
   15       33.969456   0.000000
   16       35.772873   0.000000
   17       38.539822   0.000000
   18       38.539894   0.000000
   19       39.266812   0.000000
   20       39.266995   0.000000
   21       42.056276   0.000000
   22       42.056295   0.000000
   23       42.086115   0.000000
   24       43.201233   0.000000
   25       46.489750   0.000000
   26       46.489759   0.000000
   27       48.174659   0.000000
   28       50.693642   0.000000
   29       50.694063   0.000000
   30       52.646115   0.000000
   31       52.646296   0.000000
   32       56.125056   0.000000
   33       64.211351   0.000000
   34       64.301689   0.000000
   35       64.672987   0.000000
   36       64.673954   0.000000
   37       66.233962   0.000000
   38       68.093319   0.000000
   39       68.094510   0.000000
   40       71.198731   0.000000
 
  0.9090909E-01  0.1219835E-16  0.0000000E+00  0.4507889E-02
    1       -0.928284   1.000000
    2        2.890959   1.000000
    3        5.833587   1.000000
    4        6.433444   1.000000
    5        6.625819   1.000000
    6        6.706971   1.000000
    7        6.746469   1.000000
    8        7.027735   1.000000
    9        7.604062   1.000014
   10        7.613142   1.000019
   11        9.206401  -0.000000
   12       10.546550  -0.000000
   13       17.220987   0.000000
   14       31.232589   0.000000
   15       34.178381   0.000000
   16       34.246838   0.000000
   17       35.605798   0.000000
   18       37.845657   0.000000
   19       37.951445   0.000000
   20       41.614688   0.000000
   21       41.751510   0.000000
   22       42.355711   0.000000
   23       43.106084   0.000000
   24       43.472195   0.000000
   25       47.538348   0.000000
   26       47.736783   0.000000
   27       48.154019   0.000000
   28       48.434758   0.000000
   29       51.989655   0.000000
   30       54.306452   0.000000
   31       55.095835   0.000000
   32       57.634523   0.000000
   33       62.633601   0.000000
   34       63.906396   0.000000
   35       63.982079   0.000000
   36       64.916281   0.000000
   37       64.981196   0.000000
   38       68.598416   0.000000
   39       70.285263   0.000000
   40       71.145822   0.000000
 
  0.1818182E+00  0.2500316E-16  0.0000000E+00  0.4507889E-02
    1        0.068181   1.000000
    2        3.488774   1.000000
    3        5.435759   1.000000
    4        5.483260   1.000000
    5        6.270413   1.000000
    6        6.949342   1.000000
    7        7.236765   1.000000
    8        7.258539   1.000000
    9        7.284472   1.000000
   10        7.582500   1.000007
   11        9.293998  -0.000000
   12       12.624797  -0.000000
   13       17.285363   0.000000
   14       27.676692   0.000000
   15       32.589401   0.000000
   16       32.929640   0.000000
   17       33.528801   0.000000
   18       34.929504   0.000000
   19       38.839517   0.000000
   20       40.748876   0.000000
   21       40.913856   0.000000
   22       41.335202   0.000000
   23       43.794436   0.000000
   24       45.477430   0.000000
   25       47.637867   0.000000
   26       48.442853   0.000000
   27       50.116623   0.000000
   28       52.548221   0.000000
   29       55.317628   0.000000
   30       57.174979   0.000000
   31       57.805789   0.000000
   32       60.338957   0.000000
   33       60.996507   0.000000
   34       62.354481   0.000000
   35       62.446652   0.000000
   36       63.434840   0.000000
   37       65.971837   0.000000
   38       69.262228   0.000000
   39       71.097392   0.000000
   40       71.781398   0.000000
 
  0.2727273E+00  0.2119556E-16  0.0000000E+00  0.4507889E-02
    1        1.453384   1.000000
    2        3.748410   1.000000
    3        4.410317   1.000000
    4        5.381742   1.000000
    5        6.107045   1.000000
    6        6.814615   1.000000
    7        6.923516   1.000000
    8        7.808015   1.002716
    9        8.106463   0.991623
   10        8.360552   0.150180
   11        9.356336  -0.000000
   12       14.912775   0.000000
   13       17.424666   0.000000
   14       23.674641   0.000000
   15       29.870061   0.000000
   16       29.994106   0.000000
   17       31.516001   0.000000
   18       34.461211   0.000000
   19       37.413236   0.000000
   20       40.372436   0.000000
   21       41.304908   0.000000
   22       41.505691   0.000000
   23       41.507856   0.000000
   24       45.829785   0.000000
   25       51.046064   0.000000
   26       52.827040   0.000000
   27       53.661124   0.000000
   28       55.709888   0.000000
   29       57.076185   0.000000
   30       57.851629   0.000000
   31       59.515784   0.000000
   32       61.137421   0.000000
   33       61.429018   0.000000
   34       62.427896   0.000000
   35       62.824437   0.000000
   36       65.128647   0.000000
   37       65.814383   0.000000
   38       69.776898   0.000000
   39       70.882167   0.000000
   40       71.503193   0.000000
 
  0.3636364E+00  0.4939986E-16  0.0000000E+00  0.4507889E-02
    1        2.623331   1.000000
    2        3.453357   1.000000
    3        3.713812   1.000000
    4        5.659878   1.000000
    5        6.424472   1.000000
    6        6.477394   1.000000
    7        6.627202   1.000000
    8        8.983990  -0.000003
    9        9.151655  -0.000000
   10        9.175349  -0.000000
   11        9.384122  -0.000000
   12       16.994258   0.000000
   13       17.312235   0.000000
   14       20.949411   0.000000
   15       26.582601   0.000000
   16       27.995997   0.000000
   17       28.898626   0.000000
   18       33.428769   0.000000
   19       36.141480   0.000000
   20       39.385951   0.000000
   21       40.047554   0.000000
   22       42.367549   0.000000
   23       43.693939   0.000000
   24       46.254538   0.000000
   25       54.349047   0.000000
   26       54.720460   0.000000
   27       54.890324   0.000000
   28       57.969337   0.000000
   29       58.562554   0.000000
   30       59.154643   0.000000
   31       61.469586   0.000000
   32       61.784164   0.000000
   33       62.373705   0.000000
   34       62.861032   0.000000
   35       63.954170   0.000000
   36       65.734837   0.000000
   37       69.805538   0.000000
   38       70.128757   0.000000
   39       70.232396   0.000000
   40       70.389349   0.000000
 
  0.4545455E+00  0.1844315E-16  0.0000000E+00  0.4507889E-02
    1        2.974863   1.000000
    2        3.270854   1.000000
    3        3.362379   1.000000
    4        6.200343   1.000000
    5        6.246207   1.000000
    6        6.462247   1.000000
    7        6.755148   1.000000
    8        9.389839  -0.000000
    9        9.528625  -0.000000
   10        9.689953  -0.000000
   11       11.009541  -0.000000
   12       14.767257   0.000000
   13       19.549172   0.000000
   14       21.097826   0.000000
   15       23.922470   0.000000
   16       26.301584   0.000000
   17       26.868375   0.000000
   18       32.738068   0.000000
   19       35.728912   0.000000
   20       38.186884   0.000000
   21       39.897226   0.000000
   22       43.198755   0.000000
   23       45.835306   0.000000
   24       46.596905   0.000000
   25       51.029515   0.000000
   26       56.013781   0.000000
   27       56.709287   0.000000
   28       59.810445   0.000000
   29       60.889774   0.000000
   30       61.004398   0.000000
   31       62.639552   0.000000
   32       62.718062   0.000000
   33       62.897758   0.000000
   34       65.552524   0.000000
   35       65.635973   0.000000
   36       67.780251   0.000000
   37       68.479409   0.000000
   38       68.534242   0.000000
   39       70.493144   0.000000
   40       70.645279   0.000000
 
  0.9090909E-01  0.9090909E-01  0.0000000E+00  0.4507889E-02
    1       -0.249284   1.000000
    2        3.339959   1.000000
    3        5.544814   1.000000
    4        5.785202   1.000000
    5        6.473895   1.000000
    6        6.617283   1.000000
    7        7.072194   1.000000
    8        7.140615   1.000000
    9        7.462520   1.000000
   10        7.606084   1.000015
   11        9.242054  -0.000000
   12       12.054168  -0.000000
   13       17.267531   0.000000
   14       29.334802   0.000000
   15       30.927643   0.000000
   16       34.532062   0.000000
   17       35.051594   0.000000
   18       36.480080   0.000000
   19       36.906497   0.000000
   20       39.494177   0.000000
   21       41.180929   0.000000
   22       44.647681   0.000000
   23       44.777247   0.000000
   24       45.747346   0.000000
   25       46.529758   0.000000
   26       46.790754   0.000000
   27       47.068007   0.000000
   28       52.864893   0.000000
   29       55.505525   0.000000
   30       56.177027   0.000000
   31       56.245379   0.000000
   32       59.718808   0.000000
   33       61.075671   0.000000
   34       63.191632   0.000000
   35       63.407962   0.000000
   36       63.635287   0.000000
   37       64.892662   0.000000
   38       69.601713   0.000000
   39       70.968581   0.000000
   40       71.726071   0.000000
 
  0.1818182E+00  0.9090909E-01  0.0000000E+00  0.9015778E-02
    1        0.972329   1.000000
    2        3.895679   1.000000
    3        4.786230   1.000000
    4        5.144888   1.000000
    5        6.191532   1.000000
    6        6.675540   1.000000
    7        7.113599   1.000000
    8        7.329915   1.000000
    9        7.873344   1.008748
   10        8.273236   0.476616
   11        9.271050  -0.000000
   12       14.115165   0.000000
   13       17.422132   0.000000
   14       25.707491   0.000000
   15       28.412795   0.000000
   16       31.611737   0.000000
   17       34.014840   0.000000
   18       34.429188   0.000000
   19       37.759010   0.000000
   20       39.057557   0.000000
   21       39.688046   0.000000
   22       44.310467   0.000000
   23       44.649858   0.000000
   24       45.373557   0.000000
   25       48.446760   0.000000
   26       49.312322   0.000000
   27       51.107031   0.000000
   28       56.203225   0.000000
   29       57.667925   0.000000
   30       58.732841   0.000000
   31       58.796404   0.000000
   32       60.822670   0.000000
   33       61.141593   0.000000
   34       62.415282   0.000000
   35       62.728303   0.000000
   36       63.248074   0.000000
   37       65.369046   0.000000
   38       70.149010   0.000000
   39       70.479619   0.000000
   40       71.509209   0.000000
 
  0.2727273E+00  0.9090909E-01  0.0000000E+00  0.9015778E-02
    1        2.352297   1.000000
    2        3.806806   1.000000
    3        4.016628   1.000000
    4        5.230159   1.000000
    5        6.277713   1.000000
    6        6.324172   1.000000
    7        6.913662   1.000000
    8        7.953536   1.024415
    9        8.760547  -0.001357
   10        9.284223  -0.000000
   11        9.335231  -0.000000
   12       16.423274   0.000000
   13       17.602524   0.000000
   14       22.043628   0.000000
   15       26.587607   0.000000
   16       28.286967   0.000000
   17       31.274150   0.000000
   18       32.743579   0.000000
   19       37.269801   0.000000
   20       38.405349   0.000000
   21       40.292053   0.000000
   22       44.185832   0.000000
   23       44.253771   0.000000
   24       46.710804   0.000000
   25       50.603951   0.000000
   26       53.206865   0.000000
   27       55.179679   0.000000
   28       56.337780   0.000000
   29       56.673390   0.000000
   30       59.840713   0.000000
   31       60.647790   0.000000
   32       62.068457   0.000000
   33       62.399084   0.000000
   34       62.932663   0.000000
   35       63.711065   0.000000
   36       65.232273   0.000000
   37       68.189734   0.000000
   38       69.511237   0.000000
   39       69.722108   0.000000
   40       71.882462   0.000000
 
  0.3636364E+00  0.9090909E-01  0.0000000E+00  0.9015778E-02
    1        3.129262   1.000000
    2        3.495940   1.000000
    3        3.542477   1.000000
    4        5.727867   1.000000
    5        6.155776   1.000000
    6        6.521933   1.000000
    7        6.659976   1.000000
    8        8.943306  -0.000010
    9        9.284817  -0.000000
   10        9.393207  -0.000000
   11       10.691593  -0.000000
   12       16.300659   0.000000
   13       18.815103   0.000000
   14       20.862487   0.000000
   15       25.176595   0.000000
   16       25.296105   0.000000
   17       28.078590   0.000000
   18       31.772157   0.000000
   19       36.292785   0.000000
   20       37.822191   0.000000
   21       41.079313   0.000000
   22       44.659771   0.000000
   23       45.764548   0.000000
   24       46.716109   0.000000
   25       52.932739   0.000000
   26       53.417822   0.000000
   27       55.956165   0.000000
   28       57.244401   0.000000
   29       59.143814   0.000000
   30       60.778494   0.000000
   31       61.065238   0.000000
   32       62.383790   0.000000
   33       62.967013   0.000000
   34       65.216244   0.000000
   35       66.563355   0.000000
   36       67.093132   0.000000
   37       67.343581   0.000000
   38       70.059162   0.000000
   39       71.060351   0.000000
   40       71.474490   0.000000
 
  0.4545455E+00  0.9090909E-01  0.0000000E+00  0.4507889E-02
    1        3.176184   1.000000
    2        3.382848   1.000000
    3        3.463258   1.000000
    4        6.120631   1.000000
    5        6.150988   1.000000
    6        6.320771   1.000000
    7        6.804628   1.000000
    8        9.282495  -0.000000
    9        9.495657  -0.000000
   10        9.508988  -0.000000
   11       12.013215  -0.000000
   12       14.429214   0.000000
   13       20.421671   0.000000
   14       21.536790   0.000000
   15       23.487761   0.000000
   16       24.426331   0.000000
   17       26.521474   0.000000
   18       31.417047   0.000000
   19       35.857466   0.000000
   20       37.641330   0.000000
   21       41.187066   0.000000
   22       45.392254   0.000000
   23       45.803598   0.000000
   24       47.581943   0.000000
   25       50.679805   0.000000
   26       55.443116   0.000000
   27       55.958292   0.000000
   28       58.585642   0.000000
   29       60.129347   0.000000
   30       60.181077   0.000000
   31       62.960412   0.000000
   32       62.974148   0.000000
   33       63.291089   0.000000
   34       63.846075   0.000000
   35       67.351088   0.000000
   36       68.902499   0.000000
   37       69.066913   0.000000
   38       69.390170   0.000000
   39       69.903207   0.000000
   40       72.244699   0.000000
 
  0.1818182E+00  0.1818182E+00  0.0000000E+00  0.4507889E-02
    1        2.278369   1.000000
    2        4.193529   1.000000
    3        4.346052   1.000000
    4        4.632802   1.000000
    5        6.183930   1.000000
    6        6.269821   1.000000
    7        7.098806   1.000000
    8        7.399566   1.000000
    9        8.738982  -0.002147
   10        9.182136  -0.000000
   11        9.403303  -0.000000
   12       16.139834   0.000000
   13       17.827024   0.000000
   14       23.609803   0.000000
   15       24.581867   0.000000
   16       29.651915   0.000000
   17       31.521542   0.000000
   18       33.688292   0.000000
   19       34.544842   0.000000
   20       40.070013   0.000000
   21       41.071391   0.000000
   22       45.285482   0.000000
   23       45.720423   0.000000
   24       47.791203   0.000000
   25       48.415211   0.000000
   26       50.538741   0.000000
   27       52.227730   0.000000
   28       57.689286   0.000000
   29       57.772410   0.000000
   30       59.547246   0.000000
   31       59.590213   0.000000
   32       62.092705   0.000000
   33       62.277153   0.000000
   34       64.139267   0.000000
   35       64.822396   0.000000
   36       65.233711   0.000000
   37       65.619164   0.000000
   38       69.301768   0.000000
   39       69.683562   0.000000
   40       72.807423   0.000000
 
  0.2727273E+00  0.1818182E+00  0.0000000E+00  0.9015778E-02
    1        3.476171   1.000000
    2        3.777645   1.000000
    3        4.049087   1.000000
    4        4.867080   1.000000
    5        5.926853   1.000000
    6        6.580110   1.000000
    7        6.670042   1.000000
    8        8.018485   1.035390
    9        9.104996  -0.000000
   10        9.346086  -0.000000
   11       10.819920  -0.000000
   12       18.038103   0.000000
   13       18.462538   0.000000
   14       20.878030   0.000000
   15       22.868585   0.000000
   16       27.139555   0.000000
   17       29.755828   0.000000
   18       30.240059   0.000000
   19       33.187381   0.000000
   20       41.569274   0.000000
   21       42.096660   0.000000
   22       45.662343   0.000000
   23       47.576196   0.000000
   24       48.420832   0.000000
   25       50.203195   0.000000
   26       51.793571   0.000000
   27       53.517890   0.000000
   28       55.553244   0.000000
   29       58.484766   0.000000
   30       59.446813   0.000000
   31       60.866773   0.000000
   32       62.114478   0.000000
   33       63.247647   0.000000
   34       64.722269   0.000000
   35       66.589354   0.000000
   36       67.061878   0.000000
   37       68.638155   0.000000
   38       69.940799   0.000000
   39       71.157731   0.000000
   40       72.349882   0.000000
 
  0.3636364E+00  0.1818182E+00  0.0000000E+00  0.9015778E-02
    1        3.568863   1.000000
    2        3.727939   1.000000
    3        3.923731   1.000000
    4        5.435187   1.000000
    5        5.950648   1.000000
    6        6.233832   1.000000
    7        6.877341   1.000000
    8        8.784172  -0.000795
    9        9.061292  -0.000000
   10        9.407226  -0.000000
   11       12.542446  -0.000000
   12       15.875385   0.000000
   13       20.808813   0.000000
   14       21.167587   0.000000
   15       22.192453   0.000000
   16       24.516161   0.000000
   17       27.308427   0.000000
   18       29.038416   0.000000
   19       32.514404   0.000000
   20       41.437068   0.000000
   21       43.668356   0.000000
   22       46.145740   0.000000
   23       47.866933   0.000000
   24       48.535903   0.000000
   25       52.388215   0.000000
   26       52.761686   0.000000
   27       54.608556   0.000000
   28       54.833776   0.000000
   29       58.667116   0.000000
   30       59.644256   0.000000
   31       60.220733   0.000000
   32       62.762763   0.000000
   33       63.253863   0.000000
   34       63.363036   0.000000
   35       67.684123   0.000000
   36       68.451893   0.000000
   37       70.215722   0.000000
   38       70.454962   0.000000
   39       71.600821   0.000000
   40       72.436389   0.000000
 
  0.2727273E+00  0.2727273E+00  0.0000000E+00  0.4507889E-02
    1        3.697582   1.000000
    2        4.182689   1.000000
    3        4.529849   1.000000
    4        4.575603   1.000000
    5        5.764606   1.000000
    6        6.262127   1.000000
    7        6.933639   1.000000
    8        8.321163   0.282522
    9        8.948711  -0.000008
   10        9.381772  -0.000000
   11       12.686124  -0.000000
   12       18.088704   0.000000
   13       18.567581   0.000000
   14       20.844390   0.000000
   15       22.211422   0.000000
   16       26.358370   0.000000
   17       26.813130   0.000000
   18       28.999616   0.000000
   19       29.951153   0.000000
   20       43.656972   0.000000
   21       44.725298   0.000000
   22       47.805455   0.000000
   23       48.869522   0.000000
   24       50.206864   0.000000
   25       50.305640   0.000000
   26       50.397422   0.000000
   27       53.321150   0.000000
   28       55.931016   0.000000
   29       56.302896   0.000000
   30       58.752343   0.000000
   31       60.075439   0.000000
   32       62.732414   0.000000
   33       63.271222   0.000000
   34       63.399350   0.000000
   35       67.553171   0.000000
   36       68.686257   0.000000
   37       68.772763   0.000000
   38       70.798928   0.000000
   39       72.282861   0.000000
   40       72.796211   0.000000
 
  0.3636364E+00  0.2727273E+00  0.0000000E+00  0.4507889E-02
    1        3.690462   1.000000
    2        4.309888   1.000000
    3        4.390858   1.000000
    4        4.943691   1.000000
    5        5.840532   1.000000
    6        5.953737   1.000000
    7        7.104106   1.000000
    8        8.729390  -0.002610
    9        8.888260  -0.000052
   10        9.062500  -0.000000
   11       14.500305   0.000000
   12       16.000420   0.000000
   13       18.184377   0.000000
   14       22.921159   0.000000
   15       23.166630   0.000000
   16       24.349342   0.000000
   17       26.308203   0.000000
   18       27.385144   0.000000
   19       29.313810   0.000000
   20       44.092833   0.000000
   21       46.816446   0.000000
   22       48.151220   0.000000
   23       48.741786   0.000000
   24       49.604912   0.000000
   25       51.159265   0.000000
   26       51.576352   0.000000
   27       54.450151   0.000000
   28       54.874784   0.000000
   29       55.114842   0.000000
   30       58.522501   0.000000
   31       59.852356   0.000000
   32       60.408633   0.000000
   33       63.385235   0.000000
   34       63.408365   0.000000
   35       67.724021   0.000000
   36       68.831235   0.000000
   37       71.296017   0.000000
   38       71.320109   0.000000
   39       71.405829   0.000000
   40       71.931993   0.000000
 
  0.0000000E+00  0.0000000E+00  0.9090909E-01  0.1502630E-02
    1       -1.191286   1.000000
    2        2.616382   1.000000
    3        5.897684   1.000000
    4        6.389426   1.000000
    5        6.389489   1.000000
    6        6.800498   1.000000
    7        6.800574   1.000000
    8        7.626630   1.000028
    9        7.795565   1.002109
   10        7.795585   1.002110
   11        9.148160  -0.000000
   12        9.148181  -0.000000
   13       17.616097   0.000000
   14       32.059076   0.000000
   15       33.688833   0.000000
   16       35.565422   0.000000
   17       38.584635   0.000000
   18       38.584698   0.000000
   19       39.273656   0.000000
   20       39.273833   0.000000
   21       41.988211   0.000000
   22       41.988231   0.000000
   23       42.271246   0.000000
   24       43.505241   0.000000
   25       46.099601   0.000000
   26       46.099621   0.000000
   27       48.493756   0.000000
   28       50.962560   0.000000
   29       50.962961   0.000000
   30       53.065199   0.000000
   31       53.065371   0.000000
   32       55.900338   0.000000
   33       62.977525   0.000000
   34       64.435477   0.000000
   35       64.503527   0.000000
   36       64.504463   0.000000
   37       67.079510   0.000000
   38       67.080303   0.000000
   39       67.424835   0.000000
   40       71.369168   0.000000
 
  0.9090909E-01  0.1219835E-16  0.9090909E-01  0.9015778E-02
    1       -0.838815   1.000000
    2        2.880217   1.000000
    3        5.829793   1.000000
    4        6.372829   1.000000
    5        6.480558   1.000000
    6        6.602848   1.000000
    7        6.839958   1.000000
    8        6.998875   1.000000
    9        7.672229   1.000106
   10        7.673055   1.000108
   11        9.193122  -0.000000
   12       10.364556  -0.000000
   13       17.665945   0.000000
   14       31.199676   0.000000
   15       33.657051   0.000000
   16       34.266148   0.000000
   17       35.678501   0.000000
   18       37.103627   0.000000
   19       38.675120   0.000000
   20       41.320753   0.000000
   21       41.674992   0.000000
   22       42.462876   0.000000
   23       43.118318   0.000000
   24       43.936138   0.000000
   25       47.157286   0.000000
   26       47.561901   0.000000
   27       48.765524   0.000000
   28       48.955231   0.000000
   29       51.923825   0.000000
   30       54.593883   0.000000
   31       55.397478   0.000000
   32       57.495322   0.000000
   33       61.510431   0.000000
   34       63.614625   0.000000
   35       64.175682   0.000000
   36       64.520797   0.000000
   37       66.227018   0.000000
   38       67.788743   0.000000
   39       69.142550   0.000000
   40       71.195506   0.000000
 
  0.1818182E+00  0.2500316E-16  0.9090909E-01  0.9015778E-02
    1        0.147741   1.000000
    2        3.494141   1.000000
    3        5.329501   1.000000
    4        5.508040   1.000000
    5        6.229399   1.000000
    6        6.824844   1.000000
    7        7.117679   1.000000
    8        7.412975   1.000000
    9        7.431263   1.000000
   10        7.593917   1.000010
   11        9.272478  -0.000000
   12       12.248036  -0.000000
   13       17.852776   0.000000
   14       27.736433   0.000000
   15       32.418456   0.000000
   16       32.693262   0.000000
   17       33.828799   0.000000
   18       34.480856   0.000000
   19       38.808349   0.000000
   20       40.279053   0.000000
   21       40.429950   0.000000
   22       41.974504   0.000000
   23       44.099127   0.000000
   24       46.160645   0.000000
   25       47.959303   0.000000
   26       48.447742   0.000000
   27       49.912617   0.000000
   28       52.622164   0.000000
   29       55.106372   0.000000
   30       57.357094   0.000000
   31       58.149758   0.000000
   32       59.497897   0.000000
   33       60.347956   0.000000
   34       61.985237   0.000000
   35       63.258282   0.000000
   36       63.912665   0.000000
   37       65.937559   0.000000
   38       68.649080   0.000000
   39       70.642095   0.000000
   40       71.215072   0.000000
 
  0.2727273E+00  0.2119556E-16  0.9090909E-01  0.9015778E-02
    1        1.504148   1.000000
    2        3.765848   1.000000
    3        4.375521   1.000000
    4        5.393696   1.000000
    5        6.039296   1.000000
    6        6.852595   1.000000
    7        6.949820   1.000000
    8        7.846855   1.005626
    9        8.121531   0.970193
   10        8.337639   0.223196
   11        9.329582  -0.000000
   12       14.187535   0.000000
   13       18.283106   0.000000
   14       23.747645   0.000000
   15       29.399833   0.000000
   16       30.116994   0.000000
   17       31.851399   0.000000
   18       34.313382   0.000000
   19       37.384053   0.000000
   20       39.352062   0.000000
   21       40.133509   0.000000
   22       42.355437   0.000000
   23       42.532276   0.000000
   24       46.808581   0.000000
   25       51.183587   0.000000
   26       52.732655   0.000000
   27       53.306054   0.000000
   28       54.253968   0.000000
   29       57.561559   0.000000
   30       58.553273   0.000000
   31       59.862639   0.000000
   32       61.147080   0.000000
   33       61.246437   0.000000
   34       61.683940   0.000000
   35       63.546057   0.000000
   36       64.773016   0.000000
   37       66.050804   0.000000
   38       69.278836   0.000000
   39       70.061055   0.000000
   40       71.610229   0.000000
 
  0.3636364E+00  0.4939986E-16  0.9090909E-01  0.9015778E-02
    1        2.595560   1.000000
    2        3.422693   1.000000
    3        3.833812   1.000000
    4        5.423632   1.000000
    5        6.477282   1.000000
    6        6.670537   1.000000
    7        6.722267   1.000000
    8        8.990811  -0.000002
    9        9.083957  -0.000000
   10        9.133086  -0.000000
   11        9.384293  -0.000000
   12       15.656896   0.000000
   13       18.605633   0.000000
   14       21.116738   0.000000
   15       26.174459   0.000000
   16       28.136106   0.000000
   17       29.345233   0.000000
   18       33.413249   0.000000
   19       36.146430   0.000000
   20       38.113859   0.000000
   21       41.281897   0.000000
   22       41.360613   0.000000
   23       43.802579   0.000000
   24       47.493551   0.000000
   25       52.633395   0.000000
   26       54.648987   0.000000
   27       56.310254   0.000000
   28       57.007525   0.000000
   29       58.466037   0.000000
   30       60.013858   0.000000
   31       61.377979   0.000000
   32       61.804133   0.000000
   33       62.365189   0.000000
   34       63.162131   0.000000
   35       64.037911   0.000000
   36       65.703065   0.000000
   37       69.077929   0.000000
   38       69.564626   0.000000
   39       70.212880   0.000000
   40       71.132124   0.000000
 
  0.4545455E+00  0.1844315E-16  0.9090909E-01  0.9015778E-02
    1        2.907861   1.000000
    2        3.076066   1.000000
    3        3.703928   1.000000
    4        5.527329   1.000000
    5        6.511141   1.000000
    6        6.740656   1.000000
    7        7.018892   1.000000
    8        9.304050  -0.000000
    9        9.537633  -0.000000
   10        9.693930  -0.000000
   11       10.906709  -0.000000
   12       14.571227   0.000000
   13       19.367359   0.000000
   14       21.137942   0.000000
   15       24.070577   0.000000
   16       26.707723   0.000000
   17       27.018960   0.000000
   18       32.755748   0.000000
   19       35.724430   0.000000
   20       37.224146   0.000000
   21       40.916805   0.000000