       N       E                     dE             d eps       ncg     rms          rms(c)
DAV:   1     0.615550687089E+02    0.61555E+02   -0.24454E+03  9424   0.332E+02
DAV:   2    -0.146347466635E+02   -0.76190E+02   -0.65027E+02  7968   0.984E+01
DAV:   3    -0.187751339964E+02   -0.41404E+01   -0.39702E+01  9592   0.239E+01
DAV:   4    -0.187899299976E+02   -0.14796E-01   -0.14789E-01  8888   0.150E+00
DAV:   5    -0.187899401938E+02   -0.10196E-04   -0.10195E-04  9296   0.375E-02    0.193E+01
DAV:   6    -0.160889584006E+02    0.27010E+01   -0.13848E+00 11224   0.224E+01    0.141E+00
DAV:   7    -0.159669140227E+02    0.12204E+00   -0.63899E-02  9752   0.354E+00    0.139E+00
DAV:   8    -0.159323921636E+02    0.34522E-01   -0.21477E-03 10280   0.290E-01    0.555E-01
DAV:   9    -0.159244579021E+02    0.79343E-02   -0.81074E-04 10544   0.160E-01    0.645E-02
DAV:  10    -0.159244453003E+02    0.12602E-04   -0.26046E-05  8544   0.221E-02    0.197E-02
DAV:  11    -0.159244318321E+02    0.13468E-04   -0.17500E-07  8048   0.370E-03    0.148E-03
DAV:  12    -0.159244310953E+02    0.73675E-06   -0.64075E-08  5728   0.141E-03
   1 F= -.15924431E+02 E0= -.15924513E+02  d E =0.245704E-03
