 vasp.6.2.0 18Jan21 (build Mar 17 2021 09:06:54) complex                        
  
 executed on             LinuxIFC date 2021.09.09  12:02:21
 serial version


--------------------------------------------------------------------------------------------------------


 INCAR:
   ENCUT = 280.000000
   SIGMA = 0.200000
   EDIFF = 1.00e-06
   GGA = PE
   PREC = normal
   IBRION = 1
   ICHARG = 1
   ISIF = 2
   ISMEAR = 1
   KPAR = 1
   NBANDS = 40
   NSW = 0
   NCORE = 1
   LCHARG = .TRUE.

 POTCAR:    PAW_PBE Fe 06Sep2000                  
 POTCAR:    PAW_PBE Fe 06Sep2000                  
   SHA256 =  cd5a22d9368cc8b5cc476bea79732366149640da08ac9009b0e1b7fc627eea28 Fe/POTCAR             
   COPYR  = (c) Copyright 06Sep2000 Georg Kresse                                                    
   COPYR  = This file is part of the software VASP. Any use, copying, and all other rights are regul
   COPYR  = If you do not have a valid VASP license, you may not use, copy or distribute this file. 
   VRHFIN =Fe:  d7 s1                                                                               
   LEXCH  = PE                                                                                      
   EATOM  =   594.3153 eV,   43.6809 Ry                                                             
                                                                                                    
   TITEL  = PAW_PBE Fe 06Sep2000                                                                    
   LULTRA =        F    use ultrasoft PP ?                                                          
   IUNSCR =        1    unscreen: 0-lin 1-nonlin 2-no                                               
   RPACOR =    2.000    partial core radius                                                         
   POMASS =   55.847; ZVAL   =    8.000    mass and valenz                                          
   RCORE  =    2.300    outmost cutoff radius                                                       
   RWIGS  =    2.460; RWIGS  =    1.302    wigner-seitz radius (au A)                               
   ENMAX  =  267.882; ENMIN  =  200.911 eV                                                          
   RCLOC  =    1.701    cutoff for local pot                                                        
   LCOR   =        T    correct aug charges                                                         
   LPAW   =        T    paw PP                                                                      
   EAUG   =  511.368                                                                                
   DEXC   =    0.000                                                                                
   RMAX   =    2.356    core radius for proj-oper                                                   
   RAUG   =    1.300    factor for augmentation sphere                                              
   RDEP   =    2.442    radius for radial grids                                                     
   RDEPT  =    1.890    core radius for aug-charge                                                  
                                                                                                    
   Atomic configuration                                                                             
    9 entries                                                                                       
     n  l   j            E        occ.                                                              
     1  0  0.50     -6993.8440   2.0000                                                             
     2  0  0.50      -814.6047   2.0000                                                             
     2  1  1.50      -693.3689   6.0000                                                             
     3  0  0.50       -89.4732   2.0000                                                             
     3  1  1.50       -55.6373   6.0000                                                             
     3  2  2.50        -3.8151   7.0000                                                             
     4  0  0.50        -4.2551   1.0000                                                             
     4  1  1.50        -3.4015   0.0000                                                             
     4  3  2.50        -1.3606   0.0000                                                             
   Description                                                                                      
     l       E           TYP  RCUT    TYP  RCUT                                                     
     2     -3.8151135     23  2.300                                                                 
     2     -5.1756961     23  2.300                                                                 
     0     -4.2550963     23  2.300                                                                 
     0      7.2035603     23  2.300                                                                 
     1     -2.7211652     23  2.300                                                                 
     1     18.4316424     23  2.300                                                                 
  local pseudopotential read in
  partial core-charges read in
  partial kinetic energy density read in
  atomic valenz-charges read in
  non local Contribution for L=           2  read in
    real space projection operators read in
  non local Contribution for L=           2  read in
    real space projection operators read in
  non local Contribution for L=           0  read in
    real space projection operators read in
  non local Contribution for L=           0  read in
    real space projection operators read in
  non local Contribution for L=           1  read in
    real space projection operators read in
  non local Contribution for L=           1  read in
    real space projection operators read in
    PAW grid and wavefunctions read in
 
   number of l-projection  operators is LMAX  =           6
   number of lm-projection operators is LMMAX =          18
 
  PAW_PBE Fe 06Sep2000                  :
 energy of atom  1       EATOM= -594.3153
 kinetic energy error for atom=    0.0278 (will be added to EATOM!!)
 
 
 POSCAR: Fe
  positions in cartesian coordinates
  No initial velocities read in
 exchange correlation table for  LEXCH =        8
   RHO(1)=    0.500       N(1)  =     2000
   RHO(2)=  100.500       N(2)  =     4000
 


--------------------------------------------------------------------------------------------------------


 ion  position               nearest neighbor table
   1  0.000  0.000  0.000-   2 2.38   2 2.38   2 2.38   2 2.38   2 2.38   2 2.38
   2  0.333  0.667  0.500-   1 2.38   1 2.38   1 2.38   1 2.38   1 2.38   1 2.38
 
  LATTYP: Found a hexagonal cell.
 ALAT       =     2.3067000000
 C/A-ratio  =     1.7068669528
  
  Lattice vectors:
  
 A1 = (   2.3067000000,   0.0000000000,   0.0000000000)
 A2 = (  -1.1533500000,   1.9976607989,   0.0000000000)
 A3 = (   0.0000000000,   0.0000000000,   3.9372300000)


Analysis of symmetry for initial positions (statically):
=====================================================================
 Subroutine PRICEL returns:
 Original cell was already a primitive cell.
 

 Routine SETGRP: Setting up the symmetry group for a 
 hexagonal supercell.


 Subroutine GETGRP returns: Found 24 space group operations
 (whereof 12 operations were pure point group operations)
 out of a pool of 24 trial point group operations.


The static configuration has the point symmetry D_3h.
 The point group associated with its full space group is D_6h.


Analysis of symmetry for dynamics (positions and initial velocities):
=====================================================================
 Subroutine PRICEL returns:
 Original cell was already a primitive cell.
 

 Routine SETGRP: Setting up the symmetry group for a 
 hexagonal supercell.


 Subroutine GETGRP returns: Found 24 space group operations
 (whereof 12 operations were pure point group operations)
 out of a pool of 24 trial point group operations.


The dynamic configuration has the point symmetry D_3h.
 The point group associated with its full space group is D_6h.


 Subroutine INISYM returns: Found 24 space group operations
 (whereof 12 operations are pure point group operations),
 and found     1 'primitive' translations


----------------------------------------------------------------------------------------

                                     Primitive cell                                     

  volume of cell :      18.1428

  direct lattice vectors                    reciprocal lattice vectors
     2.306700000  0.000000000  0.000000000     0.433519747  0.250292743  0.000000000
    -1.153350000  1.997660799  0.000000000     0.000000000  0.500585485  0.000000000
     0.000000000  0.000000000  3.937230000     0.000000000  0.000000000  0.253985670

  length of vectors
     2.306700000  2.306700000  3.937230000     0.500585485  0.500585485  0.253985670

  position of ions in fractional coordinates (direct lattice)
     0.000000000  0.000000000  0.000000000
     0.333333333  0.666666667  0.500000000

  ion indices of the primitive-cell ions
   primitive index   ion index
                 1           1
                 2           2

----------------------------------------------------------------------------------------

 
 
 KPOINTS: KPOINTS created by Atomic Simulation Env

Automatic generation of k-mesh.
 Grid dimensions read from file:
 generate k-points for:   11   11   11

 Generating k-lattice:

  Cartesian coordinates                     Fractional coordinates (reciprocal lattice)
     0.039410886  0.022753886  0.000000000     0.090909091  0.000000000  0.000000000
     0.000000000  0.045507771  0.000000000     0.000000000  0.090909091  0.000000000
     0.000000000  0.000000000  0.023089606     0.000000000  0.000000000  0.090909091

  Length of vectors
     0.045507771  0.045507771  0.023089606

  Shift w.r.t. Gamma in fractional coordinates (k-lattice)
     0.000000000  0.000000000  0.000000000

 
 Subroutine IBZKPT returns following result:
 ===========================================
 
 Found     96 irreducible k-points:
 
 Following reciprocal coordinates:
            Coordinates               Weight
  0.000000  0.000000  0.000000      1.000000
  0.090909  0.000000  0.000000      6.000000
  0.181818  0.000000  0.000000      6.000000
  0.272727  0.000000  0.000000      6.000000
  0.363636  0.000000  0.000000      6.000000
  0.454545  0.000000  0.000000      6.000000
  0.090909  0.090909  0.000000      6.000000
  0.181818  0.090909  0.000000     12.000000
  0.272727  0.090909  0.000000     12.000000
  0.363636  0.090909  0.000000     12.000000
  0.454545  0.090909  0.000000      6.000000
  0.181818  0.181818  0.000000      6.000000
  0.272727  0.181818  0.000000     12.000000
  0.363636  0.181818  0.000000     12.000000
  0.272727  0.272727  0.000000      6.000000
  0.363636  0.272727  0.000000      6.000000
  0.000000  0.000000  0.090909      2.000000
  0.090909  0.000000  0.090909     12.000000
  0.181818  0.000000  0.090909     12.000000
  0.272727  0.000000  0.090909     12.000000
  0.363636  0.000000  0.090909     12.000000
  0.454545  0.000000  0.090909     12.000000
  0.090909  0.090909  0.090909     12.000000
  0.181818  0.090909  0.090909     24.000000
  0.272727  0.090909  0.090909     24.000000
  0.363636  0.090909  0.090909     24.000000
  0.454545  0.090909  0.090909     12.000000
  0.181818  0.181818  0.090909     12.000000
  0.272727  0.181818  0.090909     24.000000
  0.363636  0.181818  0.090909     24.000000
  0.272727  0.272727  0.090909     12.000000
  0.363636  0.272727  0.090909     12.000000
  0.000000  0.000000  0.181818      2.000000
  0.090909  0.000000  0.181818     12.000000
  0.181818  0.000000  0.181818     12.000000
  0.272727  0.000000  0.181818     12.000000
  0.363636  0.000000  0.181818     12.000000
  0.454545  0.000000  0.181818     12.000000
  0.090909  0.090909  0.181818     12.000000
  0.181818  0.090909  0.181818     24.000000
  0.272727  0.090909  0.181818     24.000000
  0.363636  0.090909  0.181818     24.000000
  0.454545  0.090909  0.181818     12.000000
  0.181818  0.181818  0.181818     12.000000
  0.272727  0.181818  0.181818     24.000000
  0.363636  0.181818  0.181818     24.000000
  0.272727  0.272727  0.181818     12.000000
  0.363636  0.272727  0.181818     12.000000
  0.000000  0.000000  0.272727      2.000000
  0.090909  0.000000  0.272727     12.000000
  0.181818  0.000000  0.272727     12.000000
  0.272727  0.000000  0.272727     12.000000
  0.363636  0.000000  0.272727     12.000000
  0.454545  0.000000  0.272727     12.000000
  0.090909  0.090909  0.272727     12.000000
  0.181818  0.090909  0.272727     24.000000
  0.272727  0.090909  0.272727     24.000000
  0.363636  0.090909  0.272727     24.000000
  0.454545  0.090909  0.272727     12.000000
  0.181818  0.181818  0.272727     12.000000
  0.272727  0.181818  0.272727     24.000000
  0.363636  0.181818  0.272727     24.000000
  0.272727  0.272727  0.272727     12.000000
  0.363636  0.272727  0.272727     12.000000
  0.000000  0.000000  0.363636      2.000000
  0.090909  0.000000  0.363636     12.000000
  0.181818  0.000000  0.363636     12.000000
  0.272727  0.000000  0.363636     12.000000
  0.363636  0.000000  0.363636     12.000000
  0.454545  0.000000  0.363636     12.000000
  0.090909  0.090909  0.363636     12.000000
  0.181818  0.090909  0.363636     24.000000
  0.272727  0.090909  0.363636     24.000000
  0.363636  0.090909  0.363636     24.000000
  0.454545  0.090909  0.363636     12.000000
  0.181818  0.181818  0.363636     12.000000
  0.272727  0.181818  0.363636     24.000000
  0.363636  0.181818  0.363636     24.000000
  0.272727  0.272727  0.363636     12.000000
  0.363636  0.272727  0.363636     12.000000
  0.000000  0.000000  0.454545      2.000000
  0.090909  0.000000  0.454545     12.000000
  0.181818  0.000000  0.454545     12.000000
  0.272727  0.000000  0.454545     12.000000
  0.363636  0.000000  0.454545     12.000000
  0.454545  0.000000  0.454545     12.000000
  0.090909  0.090909  0.454545     12.000000
  0.181818  0.090909  0.454545     24.000000
  0.272727  0.090909  0.454545     24.000000
  0.363636  0.090909  0.454545     24.000000
  0.454545  0.090909  0.454545     12.000000
  0.181818  0.181818  0.454545     12.000000
  0.272727  0.181818  0.454545     24.000000
  0.363636  0.181818  0.454545     24.000000
  0.272727  0.272727  0.454545     12.000000
  0.363636  0.272727  0.454545     12.000000
 
 Following cartesian coordinates:
            Coordinates               Weight
  0.000000  0.000000  0.000000      1.000000
  0.039411  0.022754  0.000000      6.000000
  0.078822  0.045508  0.000000      6.000000
  0.118233  0.068262  0.000000      6.000000
  0.157644  0.091016  0.000000      6.000000
  0.197054  0.113769  0.000000      6.000000
  0.039411  0.068262  0.000000      6.000000
  0.078822  0.091016  0.000000     12.000000
  0.118233  0.113769  0.000000     12.000000
  0.157644  0.136523  0.000000     12.000000
  0.197054  0.159277  0.000000      6.000000
  0.078822  0.136523  0.000000      6.000000
  0.118233  0.159277  0.000000     12.000000
  0.157644  0.182031  0.000000     12.000000
  0.118233  0.204785  0.000000      6.000000
  0.157644  0.227539  0.000000      6.000000
  0.000000  0.000000  0.023090      2.000000
  0.039411  0.022754  0.023090     12.000000
  0.078822  0.045508  0.023090     12.000000
  0.118233  0.068262  0.023090     12.000000
  0.157644  0.091016  0.023090     12.000000
  0.197054  0.113769  0.023090     12.000000
  0.039411  0.068262  0.023090     12.000000
  0.078822  0.091016  0.023090     24.000000
  0.118233  0.113769  0.023090     24.000000
  0.157644  0.136523  0.023090     24.000000
  0.197054  0.159277  0.023090     12.000000
  0.078822  0.136523  0.023090     12.000000
  0.118233  0.159277  0.023090     24.000000
  0.157644  0.182031  0.023090     24.000000
  0.118233  0.204785  0.023090     12.000000
  0.157644  0.227539  0.023090     12.000000
  0.000000  0.000000  0.046179      2.000000
  0.039411  0.022754  0.046179     12.000000
  0.078822  0.045508  0.046179     12.000000
  0.118233  0.068262  0.046179     12.000000
  0.157644  0.091016  0.046179     12.000000
  0.197054  0.113769  0.046179     12.000000
  0.039411  0.068262  0.046179     12.000000
  0.078822  0.091016  0.046179     24.000000
  0.118233  0.113769  0.046179     24.000000
  0.157644  0.136523  0.046179     24.000000
  0.197054  0.159277  0.046179     12.000000
  0.078822  0.136523  0.046179     12.000000
  0.118233  0.159277  0.046179     24.000000
  0.157644  0.182031  0.046179     24.000000
  0.118233  0.204785  0.046179     12.000000
  0.157644  0.227539  0.046179     12.000000
  0.000000  0.000000  0.069269      2.000000
  0.039411  0.022754  0.069269     12.000000
  0.078822  0.045508  0.069269     12.000000
  0.118233  0.068262  0.069269     12.000000
  0.157644  0.091016  0.069269     12.000000
  0.197054  0.113769  0.069269     12.000000
  0.039411  0.068262  0.069269     12.000000
  0.078822  0.091016  0.069269     24.000000
  0.118233  0.113769  0.069269     24.000000
  0.157644  0.136523  0.069269     24.000000
  0.197054  0.159277  0.069269     12.000000
  0.078822  0.136523  0.069269     12.000000
  0.118233  0.159277  0.069269     24.000000
  0.157644  0.182031  0.069269     24.000000
  0.118233  0.204785  0.069269     12.000000
  0.157644  0.227539  0.069269     12.000000
  0.000000  0.000000  0.092358      2.000000
  0.039411  0.022754  0.092358     12.000000
  0.078822  0.045508  0.092358     12.000000
  0.118233  0.068262  0.092358     12.000000
  0.157644  0.091016  0.092358     12.000000
  0.197054  0.113769  0.092358     12.000000
  0.039411  0.068262  0.092358     12.000000
  0.078822  0.091016  0.092358     24.000000
  0.118233  0.113769  0.092358     24.000000
  0.157644  0.136523  0.092358     24.000000
  0.197054  0.159277  0.092358     12.000000
  0.078822  0.136523  0.092358     12.000000
  0.118233  0.159277  0.092358     24.000000
  0.157644  0.182031  0.092358     24.000000
  0.118233  0.204785  0.092358     12.000000
  0.157644  0.227539  0.092358     12.000000
  0.000000  0.000000  0.115448      2.000000
  0.039411  0.022754  0.115448     12.000000
  0.078822  0.045508  0.115448     12.000000
  0.118233  0.068262  0.115448     12.000000
  0.157644  0.091016  0.115448     12.000000
  0.197054  0.113769  0.115448     12.000000
  0.039411  0.068262  0.115448     12.000000
  0.078822  0.091016  0.115448     24.000000
  0.118233  0.113769  0.115448     24.000000
  0.157644  0.136523  0.115448     24.000000
  0.197054  0.159277  0.115448     12.000000
  0.078822  0.136523  0.115448     12.000000
  0.118233  0.159277  0.115448     24.000000
  0.157644  0.182031  0.115448     24.000000
  0.118233  0.204785  0.115448     12.000000
  0.157644  0.227539  0.115448     12.000000
 


--------------------------------------------------------------------------------------------------------




 Dimension of arrays:
   k-points           NKPTS =     96   k-points in BZ     NKDIM =     96   number of bands    NBANDS=     40
   number of dos      NEDOS =    301   number of ions     NIONS =      2
   non local maximal  LDIM  =      6   non local SUM 2l+1 LMDIM =     18
   total plane-waves  NPLWV =   1600
   max r-space proj   IRMAX =      1   max aug-charges    IRDMAX=   3341
   dimension x,y,z NGX =    10 NGY =   10 NGZ =   16
   dimension x,y,z NGXF=    20 NGYF=   20 NGZF=   32
   support grid    NGXF=    20 NGYF=   20 NGZF=   32
   ions per type =               2
   NGX,Y,Z   is equivalent  to a cutoff of   7.21,  7.21,  6.76 a.u.
   NGXF,Y,Z  is equivalent  to a cutoff of  14.41, 14.41, 13.51 a.u.

 SYSTEM =  unknown system                          
 POSCAR =  Fe                                      

 Startparameter for this run:
   NWRITE =      2    write-flag & timer
   PREC   = normal    normal or accurate (medium, high low for compatibility)
   ISTART =      0    job   : 0-new  1-cont  2-samecut
   ICHARG =      1    charge: 1-file 2-atom 10-const
   ISPIN  =      1    spin polarized calculation?
   LNONCOLLINEAR =      F non collinear calculations
   LSORBIT =      F    spin-orbit coupling
   INIWAV =      1    electr: 0-lowe 1-rand  2-diag
   LASPH  =      F    aspherical Exc in radial PAW
   METAGGA=      F    non-selfconsistent MetaGGA calc.

 Electronic Relaxation 1
   ENCUT  =  280.0 eV  20.58 Ry    4.54 a.u.   3.15  3.15  5.37*2*pi/ulx,y,z
   ENINI  =  280.0     initial cutoff
   ENAUG  =  511.4 eV  augmentation charge cutoff
   NELM   =     60;   NELMIN=  2; NELMDL= -5     # of ELM steps 
   EDIFF  = 0.1E-05   stopping-criterion for ELM
   LREAL  =      F    real-space projection
   NLSPLINE    = F    spline interpolate recip. space projectors
   LCOMPAT=      F    compatible to vasp.4.4
   GGA_COMPAT  = T    GGA compatible to vasp.4.4-vasp.4.6
   LMAXPAW     = -100 max onsite density
   LMAXMIX     =    2 max onsite mixed and CHGCAR
   VOSKOWN=      0    Vosko Wilk Nusair interpolation
   ROPT   =    0.00000
 Ionic relaxation
   EDIFFG = 0.1E-04   stopping-criterion for IOM
   NSW    =      0    number of steps for IOM
   NBLOCK =      1;   KBLOCK =      1    inner block; outer block 
   IBRION =     -1    ionic relax: 0-MD 1-quasi-New 2-CG
   NFREE  =      0    steps in history (QN), initial steepest desc. (CG)
   ISIF   =      2    stress and relaxation
   IWAVPR =      0    prediction:  0-non 1-charg 2-wave 3-comb
   ISYM   =      2    0-nonsym 1-usesym 2-fastsym
   LCORR  =      T    Harris-Foulkes like correction to forces

   POTIM  = 0.5000    time-step for ionic-motion
   TEIN   =    0.0    initial temperature
   TEBEG  =    0.0;   TEEND  =   0.0 temperature during run
   SMASS  =  -3.00    Nose mass-parameter (am)
   estimated Nose-frequenzy (Omega)   =  0.10E-29 period in steps = 0.13E+47 mass=  -0.122E-27a.u.
   SCALEE = 1.0000    scale energy and forces
   NPACO  =    256;   APACO  = 16.0  distance and # of slots for P.C.
   PSTRESS=    0.0 pullay stress

  Mass of Ions in am
   POMASS =  55.85
  Ionic Valenz
   ZVAL   =   8.00
  Atomic Wigner-Seitz radii
   RWIGS  =  -1.00
  virtual crystal weights 
   VCA    =   1.00
   NELECT =      16.0000    total number of electrons
   NUPDOWN=      -1.0000    fix difference up-down

 DOS related values:
   EMIN   =  10.00;   EMAX   =-10.00  energy-range for DOS
   EFERMI =   0.00
   ISMEAR =     1;   SIGMA  =   0.20  broadening in eV -4-tet -1-fermi 0-gaus

 Electronic relaxation 2 (details)
   IALGO  =     38    algorithm
   LDIAG  =      T    sub-space diagonalisation (order eigenvalues)
   LSUBROT=      F    optimize rotation matrix (better conditioning)
   TURBO    =      0    0=normal 1=particle mesh
   IRESTART =      0    0=no restart 2=restart with 2 vectors
   NREBOOT  =      0    no. of reboots
   NMIN     =      0    reboot dimension
   EREF     =   0.00    reference energy to select bands
   IMIX   =      4    mixing-type and parameters
     AMIX     =   0.40;   BMIX     =  1.00
     AMIX_MAG =   1.60;   BMIX_MAG =  1.00
     AMIN     =   0.10
     WC   =   100.;   INIMIX=   1;  MIXPRE=   1;  MAXMIX= -45

 Intra band minimization:
   WEIMIN = 0.0000     energy-eigenvalue tresh-hold
   EBREAK =  0.62E-08  absolut break condition
   DEPER  =   0.30     relativ break condition  

   TIME   =   0.40     timestep for ELM

  volume/ion in A,a.u.               =       9.07        61.22
  Fermi-wavevector in a.u.,A,eV,Ry     =   1.569930  2.966737 33.534008  2.464680
  Thomas-Fermi vector in A             =   2.671739
 
 Write flags
   LWAVE        =      T    write WAVECAR
   LDOWNSAMPLE  =      F    k-point downsampling of WAVECAR
   LCHARG       =      T    write CHGCAR
   LVTOT        =      F    write LOCPOT, total local potential
   LVHAR        =      F    write LOCPOT, Hartree potential only
   LELF         =      F    write electronic localiz. function (ELF)
   LORBIT       =      0    0 simple, 1 ext, 2 COOP (PROOUT), +10 PAW based schemes


 Dipole corrections
   LMONO  =      F    monopole corrections only (constant potential shift)
   LDIPOL =      F    correct potential (dipole corrections)
   IDIPOL =      0    1-x, 2-y, 3-z, 4-all directions 
   EPSILON=  1.0000000 bulk dielectric constant

 Exchange correlation treatment:
   GGA     =    PE    GGA type
   LEXCH   =     8    internal setting for exchange type
   VOSKOWN=      0    Vosko Wilk Nusair interpolation
   LHFCALC =     F    Hartree Fock is set to
   LHFONE  =     F    Hartree Fock one center treatment
   AEXX    =    0.0000 exact exchange contribution

 Linear response parameters
   LEPSILON=     F    determine dielectric tensor
   LRPA    =     F    only Hartree local field effects (RPA)
   LNABLA  =     F    use nabla operator in PAW spheres
   LVEL    =     F    velocity operator in full k-point grid
   LINTERFAST=   F  fast interpolation
   KINTER  =     0    interpolate to denser k-point grid
   CSHIFT  =0.1000    complex shift for real part using Kramers Kronig
   OMEGAMAX=  -1.0    maximum frequency
   DEG_THRESHOLD= 0.2000000E-02 threshold for treating states as degnerate
   RTIME   =   -0.100 relaxation time in fs
  (WPLASMAI=    0.000 imaginary part of plasma frequency in eV, 0.658/RTIME)
   DFIELD  = 0.0000000 0.0000000 0.0000000 field for delta impulse in time
 
 Orbital magnetization related:
   ORBITALMAG=     F  switch on orbital magnetization
   LCHIMAG   =     F  perturbation theory with respect to B field
   DQ        =  0.001000  dq finite difference perturbation B field
   LLRAUG    =     F  two centre corrections for induced B field



--------------------------------------------------------------------------------------------------------


 Static calculation
 charge density and potential will be updated during run
 non-spin polarized calculation
 Variant of blocked Davidson
 Davidson routine will perform the subspace rotation
 perform sub-space diagonalisation
    after iterative eigenvector-optimisation
 modified Broyden-mixing scheme, WC =      100.0
 initial mixing is a Kerker type mixing with AMIX =  0.4000 and BMIX =      1.0000
 Hartree-type preconditioning will be used
 using additional bands           32
 reciprocal scheme for non local part
 use partial core corrections
 calculate Harris-corrections to forces 
   (improved forces if not selfconsistent)
 use gradient corrections 
 use of overlap-Matrix (Vanderbilt PP)
 Methfessel and Paxton  Order N= 1 SIGMA  =   0.20


--------------------------------------------------------------------------------------------------------


  energy-cutoff  :      280.00
  volume of cell :       18.14
      direct lattice vectors                 reciprocal lattice vectors
     2.306700000  0.000000000  0.000000000     0.433519747  0.250292743  0.000000000
    -1.153350000  1.997660799  0.000000000     0.000000000  0.500585485  0.000000000
     0.000000000  0.000000000  3.937230000     0.000000000  0.000000000  0.253985670

  length of vectors
     2.306700000  2.306700000  3.937230000     0.500585485  0.500585485  0.253985670


 
 k-points in units of 2pi/SCALE and weight: KPOINTS created by Atomic Simulation Env
   0.00000000  0.00000000  0.00000000       0.001
   0.03941089  0.02275389  0.00000000       0.005
   0.07882177  0.04550777  0.00000000       0.005
   0.11823266  0.06826166  0.00000000       0.005
   0.15764354  0.09101554  0.00000000       0.005
   0.19705443  0.11376943  0.00000000       0.005
   0.03941089  0.06826166  0.00000000       0.005
   0.07882177  0.09101554  0.00000000       0.009
   0.11823266  0.11376943  0.00000000       0.009
   0.15764354  0.13652331  0.00000000       0.009
   0.19705443  0.15927720  0.00000000       0.005
   0.07882177  0.13652331  0.00000000       0.005
   0.11823266  0.15927720  0.00000000       0.009
   0.15764354  0.18203109  0.00000000       0.009
   0.11823266  0.20478497  0.00000000       0.005
   0.15764354  0.22753886  0.00000000       0.005
   0.00000000  0.00000000  0.02308961       0.002
   0.03941089  0.02275389  0.02308961       0.009
   0.07882177  0.04550777  0.02308961       0.009
   0.11823266  0.06826166  0.02308961       0.009
   0.15764354  0.09101554  0.02308961       0.009
   0.19705443  0.11376943  0.02308961       0.009
   0.03941089  0.06826166  0.02308961       0.009
   0.07882177  0.09101554  0.02308961       0.018
   0.11823266  0.11376943  0.02308961       0.018
   0.15764354  0.13652331  0.02308961       0.018
   0.19705443  0.15927720  0.02308961       0.009
   0.07882177  0.13652331  0.02308961       0.009
   0.11823266  0.15927720  0.02308961       0.018
   0.15764354  0.18203109  0.02308961       0.018
   0.11823266  0.20478497  0.02308961       0.009
   0.15764354  0.22753886  0.02308961       0.009
   0.00000000  0.00000000  0.04617921       0.002
   0.03941089  0.02275389  0.04617921       0.009
   0.07882177  0.04550777  0.04617921       0.009
   0.11823266  0.06826166  0.04617921       0.009
   0.15764354  0.09101554  0.04617921       0.009
   0.19705443  0.11376943  0.04617921       0.009
   0.03941089  0.06826166  0.04617921       0.009
   0.07882177  0.09101554  0.04617921       0.018
   0.11823266  0.11376943  0.04617921       0.018
   0.15764354  0.13652331  0.04617921       0.018
   0.19705443  0.15927720  0.04617921       0.009
   0.07882177  0.13652331  0.04617921       0.009
   0.11823266  0.15927720  0.04617921       0.018
   0.15764354  0.18203109  0.04617921       0.018
   0.11823266  0.20478497  0.04617921       0.009
   0.15764354  0.22753886  0.04617921       0.009
   0.00000000  0.00000000  0.06926882       0.002
   0.03941089  0.02275389  0.06926882       0.009
   0.07882177  0.04550777  0.06926882       0.009
   0.11823266  0.06826166  0.06926882       0.009
   0.15764354  0.09101554  0.06926882       0.009
   0.19705443  0.11376943  0.06926882       0.009
   0.03941089  0.06826166  0.06926882       0.009
   0.07882177  0.09101554  0.06926882       0.018
   0.11823266  0.11376943  0.06926882       0.018
   0.15764354  0.13652331  0.06926882       0.018
   0.19705443  0.15927720  0.06926882       0.009
   0.07882177  0.13652331  0.06926882       0.009
   0.11823266  0.15927720  0.06926882       0.018
   0.15764354  0.18203109  0.06926882       0.018
   0.11823266  0.20478497  0.06926882       0.009
   0.15764354  0.22753886  0.06926882       0.009
   0.00000000  0.00000000  0.09235843       0.002
   0.03941089  0.02275389  0.09235843       0.009
   0.07882177  0.04550777  0.09235843       0.009
   0.11823266  0.06826166  0.09235843       0.009
   0.15764354  0.09101554  0.09235843       0.009
   0.19705443  0.11376943  0.09235843       0.009
   0.03941089  0.06826166  0.09235843       0.009
   0.07882177  0.09101554  0.09235843       0.018
   0.11823266  0.11376943  0.09235843       0.018
   0.15764354  0.13652331  0.09235843       0.018
   0.19705443  0.15927720  0.09235843       0.009
   0.07882177  0.13652331  0.09235843       0.009
   0.11823266  0.15927720  0.09235843       0.018
   0.15764354  0.18203109  0.09235843       0.018
   0.11823266  0.20478497  0.09235843       0.009
   0.15764354  0.22753886  0.09235843       0.009
   0.00000000  0.00000000  0.11544803       0.002
   0.03941089  0.02275389  0.11544803       0.009
   0.07882177  0.04550777  0.11544803       0.009
   0.11823266  0.06826166  0.11544803       0.009
   0.15764354  0.09101554  0.11544803       0.009
   0.19705443  0.11376943  0.11544803       0.009
   0.03941089  0.06826166  0.11544803       0.009
   0.07882177  0.09101554  0.11544803       0.018
   0.11823266  0.11376943  0.11544803       0.018
   0.15764354  0.13652331  0.11544803       0.018
   0.19705443  0.15927720  0.11544803       0.009
   0.07882177  0.13652331  0.11544803       0.009
   0.11823266  0.15927720  0.11544803       0.018
   0.15764354  0.18203109  0.11544803       0.018
   0.11823266  0.20478497  0.11544803       0.009
   0.15764354  0.22753886  0.11544803       0.009
 
 k-points in reciprocal lattice and weights: KPOINTS created by Atomic Simulation Env
   0.00000000  0.00000000  0.00000000       0.001
   0.09090909  0.00000000  0.00000000       0.005
   0.18181818  0.00000000  0.00000000       0.005
   0.27272727  0.00000000  0.00000000       0.005
   0.36363636  0.00000000  0.00000000       0.005
   0.45454545  0.00000000  0.00000000       0.005
   0.09090909  0.09090909  0.00000000       0.005
   0.18181818  0.09090909  0.00000000       0.009
   0.27272727  0.09090909  0.00000000       0.009
   0.36363636  0.09090909  0.00000000       0.009
   0.45454545  0.09090909  0.00000000       0.005
   0.18181818  0.18181818  0.00000000       0.005
   0.27272727  0.18181818  0.00000000       0.009
   0.36363636  0.18181818  0.00000000       0.009
   0.27272727  0.27272727  0.00000000       0.005
   0.36363636  0.27272727  0.00000000       0.005
   0.00000000  0.00000000  0.09090909       0.002
   0.09090909  0.00000000  0.09090909       0.009
   0.18181818  0.00000000  0.09090909       0.009
   0.27272727  0.00000000  0.09090909       0.009
   0.36363636  0.00000000  0.09090909       0.009
   0.45454545  0.00000000  0.09090909       0.009
   0.09090909  0.09090909  0.09090909       0.009
   0.18181818  0.09090909  0.09090909       0.018
   0.27272727  0.09090909  0.09090909       0.018
   0.36363636  0.09090909  0.09090909       0.018
   0.45454545  0.09090909  0.09090909       0.009
   0.18181818  0.18181818  0.09090909       0.009
   0.27272727  0.18181818  0.09090909       0.018
   0.36363636  0.18181818  0.09090909       0.018
   0.27272727  0.27272727  0.09090909       0.009
   0.36363636  0.27272727  0.09090909       0.009
   0.00000000  0.00000000  0.18181818       0.002
   0.09090909  0.00000000  0.18181818       0.009
   0.18181818  0.00000000  0.18181818       0.009
   0.27272727  0.00000000  0.18181818       0.009
   0.36363636  0.00000000  0.18181818       0.009
   0.45454545  0.00000000  0.18181818       0.009
   0.09090909  0.09090909  0.18181818       0.009
   0.18181818  0.09090909  0.18181818       0.018
   0.27272727  0.09090909  0.18181818       0.018
   0.36363636  0.09090909  0.18181818       0.018
   0.45454545  0.09090909  0.18181818       0.009
   0.18181818  0.18181818  0.18181818       0.009
   0.27272727  0.18181818  0.18181818       0.018
   0.36363636  0.18181818  0.18181818       0.018
   0.27272727  0.27272727  0.18181818       0.009
   0.36363636  0.27272727  0.18181818       0.009
   0.00000000  0.00000000  0.27272727       0.002
   0.09090909  0.00000000  0.27272727       0.009
   0.18181818  0.00000000  0.27272727       0.009
   0.27272727  0.00000000  0.27272727       0.009
   0.36363636  0.00000000  0.27272727       0.009
   0.45454545  0.00000000  0.27272727       0.009
   0.09090909  0.09090909  0.27272727       0.009
   0.18181818  0.09090909  0.27272727       0.018
   0.27272727  0.09090909  0.27272727       0.018
   0.36363636  0.09090909  0.27272727       0.018
   0.45454545  0.09090909  0.27272727       0.009
   0.18181818  0.18181818  0.27272727       0.009
   0.27272727  0.18181818  0.27272727       0.018
   0.36363636  0.18181818  0.27272727       0.018
   0.27272727  0.27272727  0.27272727       0.009
   0.36363636  0.27272727  0.27272727       0.009
   0.00000000  0.00000000  0.36363636       0.002
   0.09090909  0.00000000  0.36363636       0.009
   0.18181818  0.00000000  0.36363636       0.009
   0.27272727  0.00000000  0.36363636       0.009
   0.36363636  0.00000000  0.36363636       0.009
   0.45454545  0.00000000  0.36363636       0.009
   0.09090909  0.09090909  0.36363636       0.009
   0.18181818  0.09090909  0.36363636       0.018
   0.27272727  0.09090909  0.36363636       0.018
   0.36363636  0.09090909  0.36363636       0.018
   0.45454545  0.09090909  0.36363636       0.009
   0.18181818  0.18181818  0.36363636       0.009
   0.27272727  0.18181818  0.36363636       0.018
   0.36363636  0.18181818  0.36363636       0.018
   0.27272727  0.27272727  0.36363636       0.009
   0.36363636  0.27272727  0.36363636       0.009
   0.00000000  0.00000000  0.45454545       0.002
   0.09090909  0.00000000  0.45454545       0.009
   0.18181818  0.00000000  0.45454545       0.009
   0.27272727  0.00000000  0.45454545       0.009
   0.36363636  0.00000000  0.45454545       0.009
   0.45454545  0.00000000  0.45454545       0.009
   0.09090909  0.09090909  0.45454545       0.009
   0.18181818  0.09090909  0.45454545       0.018
   0.27272727  0.09090909  0.45454545       0.018
   0.36363636  0.09090909  0.45454545       0.018
   0.45454545  0.09090909  0.45454545       0.009
   0.18181818  0.18181818  0.45454545       0.009
   0.27272727  0.18181818  0.45454545       0.018
   0.36363636  0.18181818  0.45454545       0.018
   0.27272727  0.27272727  0.45454545       0.009
   0.36363636  0.27272727  0.45454545       0.009
 
 position of ions in fractional coordinates (direct lattice) 
   0.00000000  0.00000000  0.00000000
   0.33333333  0.66666667  0.50000000
 
 position of ions in cartesian coordinates  (Angst):
   0.00000000  0.00000000  0.00000000
   0.00000000  1.33177387  1.96861500
 


--------------------------------------------------------------------------------------------------------


 k-point   1 :   0.0000 0.0000 0.0000  plane waves:     197
 k-point   2 :   0.0909 0.0000 0.0000  plane waves:     193
 k-point   3 :   0.1818 0.0000 0.0000  plane waves:     193
 k-point   4 :   0.2727 0.0000 0.0000  plane waves:     191
 k-point   5 :   0.3636 0.0000 0.0000  plane waves:     192
 k-point   6 :   0.4545 0.0000 0.0000  plane waves:     196
 k-point   7 :   0.0909 0.0909 0.0000  plane waves:     187
 k-point   8 :   0.1818 0.0909 0.0000  plane waves:     188
 k-point   9 :   0.2727 0.0909 0.0000  plane waves:     193
 k-point  10 :   0.3636 0.0909 0.0000  plane waves:     193
 k-point  11 :   0.4545 0.0909 0.0000  plane waves:     202
 k-point  12 :   0.1818 0.1818 0.0000  plane waves:     185
 k-point  13 :   0.2727 0.1818 0.0000  plane waves:     193
 k-point  14 :   0.3636 0.1818 0.0000  plane waves:     197
 k-point  15 :   0.2727 0.2727 0.0000  plane waves:     195
 k-point  16 :   0.3636 0.2727 0.0000  plane waves:     197
 k-point  17 :   0.0000 0.0000 0.0909  plane waves:     203
 k-point  18 :   0.0909 0.0000 0.0909  plane waves:     191
 k-point  19 :   0.1818 0.0000 0.0909  plane waves:     192
 k-point  20 :   0.2727 0.0000 0.0909  plane waves:     190
 k-point  21 :   0.3636 0.0000 0.0909  plane waves:     190
 k-point  22 :   0.4545 0.0000 0.0909  plane waves:     195
 k-point  23 :   0.0909 0.0909 0.0909  plane waves:     191
 k-point  24 :   0.1818 0.0909 0.0909  plane waves:     191
 k-point  25 :   0.2727 0.0909 0.0909  plane waves:     192
 k-point  26 :   0.3636 0.0909 0.0909  plane waves:     193
 k-point  27 :   0.4545 0.0909 0.0909  plane waves:     197
 k-point  28 :   0.1818 0.1818 0.0909  plane waves:     189
 k-point  29 :   0.2727 0.1818 0.0909  plane waves:     194
 k-point  30 :   0.3636 0.1818 0.0909  plane waves:     199
 k-point  31 :   0.2727 0.2727 0.0909  plane waves:     199
 k-point  32 :   0.3636 0.2727 0.0909  plane waves:     198
 k-point  33 :   0.0000 0.0000 0.1818  plane waves:     197
 k-point  34 :   0.0909 0.0000 0.1818  plane waves:     190
 k-point  35 :   0.1818 0.0000 0.1818  plane waves:     194
 k-point  36 :   0.2727 0.0000 0.1818  plane waves:     190
 k-point  37 :   0.3636 0.0000 0.1818  plane waves:     190
 k-point  38 :   0.4545 0.0000 0.1818  plane waves:     191
 k-point  39 :   0.0909 0.0909 0.1818  plane waves:     190
 k-point  40 :   0.1818 0.0909 0.1818  plane waves:     191
 k-point  41 :   0.2727 0.0909 0.1818  plane waves:     194
 k-point  42 :   0.3636 0.0909 0.1818  plane waves:     196
 k-point  43 :   0.4545 0.0909 0.1818  plane waves:     192
 k-point  44 :   0.1818 0.1818 0.1818  plane waves:     189
 k-point  45 :   0.2727 0.1818 0.1818  plane waves:     194
 k-point  46 :   0.3636 0.1818 0.1818  plane waves:     199
 k-point  47 :   0.2727 0.2727 0.1818  plane waves:     198
 k-point  48 :   0.3636 0.2727 0.1818  plane waves:     200
 k-point  49 :   0.0000 0.0000 0.2727  plane waves:     197
 k-point  50 :   0.0909 0.0000 0.2727  plane waves:     192
 k-point  51 :   0.1818 0.0000 0.2727  plane waves:     191
 k-point  52 :   0.2727 0.0000 0.2727  plane waves:     191
 k-point  53 :   0.3636 0.0000 0.2727  plane waves:     191
 k-point  54 :   0.4545 0.0000 0.2727  plane waves:     194
 k-point  55 :   0.0909 0.0909 0.2727  plane waves:     188
 k-point  56 :   0.1818 0.0909 0.2727  plane waves:     190
 k-point  57 :   0.2727 0.0909 0.2727  plane waves:     191
 k-point  58 :   0.3636 0.0909 0.2727  plane waves:     193
 k-point  59 :   0.4545 0.0909 0.2727  plane waves:     194
 k-point  60 :   0.1818 0.1818 0.2727  plane waves:     193
 k-point  61 :   0.2727 0.1818 0.2727  plane waves:     194
 k-point  62 :   0.3636 0.1818 0.2727  plane waves:     196
 k-point  63 :   0.2727 0.2727 0.2727  plane waves:     195
 k-point  64 :   0.3636 0.2727 0.2727  plane waves:     197
 k-point  65 :   0.0000 0.0000 0.3636  plane waves:     191
 k-point  66 :   0.0909 0.0000 0.3636  plane waves:     192
 k-point  67 :   0.1818 0.0000 0.3636  plane waves:     190
 k-point  68 :   0.2727 0.0000 0.3636  plane waves:     190
 k-point  69 :   0.3636 0.0000 0.3636  plane waves:     190
 k-point  70 :   0.4545 0.0000 0.3636  plane waves:     192
 k-point  71 :   0.0909 0.0909 0.3636  plane waves:     187
 k-point  72 :   0.1818 0.0909 0.3636  plane waves:     190
 k-point  73 :   0.2727 0.0909 0.3636  plane waves:     193
 k-point  74 :   0.3636 0.0909 0.3636  plane waves:     193
 k-point  75 :   0.4545 0.0909 0.3636  plane waves:     194
 k-point  76 :   0.1818 0.1818 0.3636  plane waves:     188
 k-point  77 :   0.2727 0.1818 0.3636  plane waves:     197
 k-point  78 :   0.3636 0.1818 0.3636  plane waves:     193
 k-point  79 :   0.2727 0.2727 0.3636  plane waves:     194
 k-point  80 :   0.3636 0.2727 0.3636  plane waves:     198
 k-point  81 :   0.0000 0.0000 0.4545  plane waves:     190
 k-point  82 :   0.0909 0.0000 0.4545  plane waves:     190
 k-point  83 :   0.1818 0.0000 0.4545  plane waves:     186
 k-point  84 :   0.2727 0.0000 0.4545  plane waves:     194
 k-point  85 :   0.3636 0.0000 0.4545  plane waves:     196
 k-point  86 :   0.4545 0.0000 0.4545  plane waves:     193
 k-point  87 :   0.0909 0.0909 0.4545  plane waves:     190
 k-point  88 :   0.1818 0.0909 0.4545  plane waves:     189
 k-point  89 :   0.2727 0.0909 0.4545  plane waves:     194
 k-point  90 :   0.3636 0.0909 0.4545  plane waves:     195
 k-point  91 :   0.4545 0.0909 0.4545  plane waves:     196
 k-point  92 :   0.1818 0.1818 0.4545  plane waves:     192
 k-point  93 :   0.2727 0.1818 0.4545  plane waves:     195
 k-point  94 :   0.3636 0.1818 0.4545  plane waves:     192
 k-point  95 :   0.2727 0.2727 0.4545  plane waves:     198
 k-point  96 :   0.3636 0.2727 0.4545  plane waves:     194

 maximum number of plane-waves:       203
 maximum index in each direction: 
   IXMAX=    3   IYMAX=    3   IZMAX=    5
   IXMIN=   -3   IYMIN=   -3   IZMIN=   -5


 total amount of memory used by VASP MPI-rank0    48248. kBytes
=======================================================================

   base      :      30000. kBytes
   nonl-proj :       2812. kBytes
   grid      :        721. kBytes
   one-center:         31. kBytes
   wavefun   :      14684. kBytes
 
     INWAV:  cpu time    0.0000: real time    0.0000
 Broyden mixing: mesh for mixing (old mesh)
   NGX =  7   NGY =  7   NGZ = 11
  (NGX  = 20   NGY  = 20   NGZ  = 32)
  gives a total of    539 points

 initial charge density was supplied:
 charge density of overlapping atoms calculated
 number of electron      16.0000000 magnetization 
 keeping initial charge density in first step


--------------------------------------------------------------------------------------------------------


 Maximum index for augmentation-charges         3060 (set IRDMAX)


--------------------------------------------------------------------------------------------------------


 First call to EWALD:  gamma=   0.675
 Maximum number of real-space cells 3x 3x 2
 Maximum number of reciprocal cells 2x 2x 4

    FEWALD:  cpu time    0.0008: real time    0.0008


--------------------------------------- Iteration      1(   1)  ---------------------------------------


    POTLOK:  cpu time    0.0031: real time    0.0031
    SETDIJ:  cpu time    0.0022: real time    0.0022
     EDDAV:  cpu time    0.7303: real time    0.7507
       DOS:  cpu time    0.0054: real time    0.0054
    --------------------------------------------
      LOOP:  cpu time    0.7411: real time    0.7614

 eigenvalue-minimisations  :  9424
 total energy-change (2. order) : 0.6155507E+02  (-0.2445407E+03)
 number of electron      16.0000000 magnetization 
 augmentation part       16.0000000 magnetization 

 Free energy of the ion-electron system (eV)
  ---------------------------------------------------
  alpha Z        PSCENC =       152.37754207
  Ewald energy   TEWEN  =     -1275.90119180
  -Hartree energ DENC   =      -189.95599937
  -exchange      EXHF   =         0.00000000
  -V(xc)+E(xc)   XCENC  =         9.25695896
  PAW double counting   =      1109.69170683    -1125.09647265
  entropy T*S    EENTRO =         0.00031899
  eigenvalues    EBANDS =       192.60729757
  atomic energy  EATOM  =      1188.57490811
  Solvation  Ediel_sol  =         0.00000000
  ---------------------------------------------------
  free energy    TOTEN  =        61.55506871 eV

  energy without entropy =       61.55474972  energy(sigma->0) =       61.55496238


--------------------------------------------------------------------------------------------------------




--------------------------------------- Iteration      1(   2)  ---------------------------------------


     EDDAV:  cpu time    0.6324: real time    0.6325
       DOS:  cpu time    0.0059: real time    0.0059
    --------------------------------------------
      LOOP:  cpu time    0.6384: real time    0.6384

 eigenvalue-minimisations  :  7968
 total energy-change (2. order) :-0.7618982E+02  (-0.6502706E+02)
 number of electron      16.0000000 magnetization 
 augmentation part       16.0000000 magnetization 

 Free energy of the ion-electron system (eV)
  ---------------------------------------------------
  alpha Z        PSCENC =       152.37754207
  Ewald energy   TEWEN  =     -1275.90119180
  -Hartree energ DENC   =      -189.95599937
  -exchange      EXHF   =         0.00000000
  -V(xc)+E(xc)   XCENC  =         9.25695896
  PAW double counting   =      1109.69170683    -1125.09647265
  entropy T*S    EENTRO =        -0.00031507
  eigenvalues    EBANDS =       116.41811626
  atomic energy  EATOM  =      1188.57490811
  Solvation  Ediel_sol  =         0.00000000
  ---------------------------------------------------
  free energy    TOTEN  =       -14.63474666 eV

  energy without entropy =      -14.63443160  energy(sigma->0) =      -14.63464164


--------------------------------------------------------------------------------------------------------




--------------------------------------- Iteration      1(   3)  ---------------------------------------


     EDDAV:  cpu time    0.7302: real time    0.7303
       DOS:  cpu time    0.0062: real time    0.0062
    --------------------------------------------
      LOOP:  cpu time    0.7365: real time    0.7365

 eigenvalue-minimisations  :  9592
 total energy-change (2. order) :-0.4140387E+01  (-0.3970153E+01)
 number of electron      16.0000000 magnetization 
 augmentation part       16.0000000 magnetization 

 Free energy of the ion-electron system (eV)
  ---------------------------------------------------
  alpha Z        PSCENC =       152.37754207
  Ewald energy   TEWEN  =     -1275.90119180
  -Hartree energ DENC   =      -189.95599937
  -exchange      EXHF   =         0.00000000
  -V(xc)+E(xc)   XCENC  =         9.25695896
  PAW double counting   =      1109.69170683    -1125.09647265
  entropy T*S    EENTRO =        -0.00068618
  eigenvalues    EBANDS =       112.27810004
  atomic energy  EATOM  =      1188.57490811
  Solvation  Ediel_sol  =         0.00000000
  ---------------------------------------------------
  free energy    TOTEN  =       -18.77513400 eV

  energy without entropy =      -18.77444781  energy(sigma->0) =      -18.77490527


--------------------------------------------------------------------------------------------------------




--------------------------------------- Iteration      1(   4)  ---------------------------------------


     EDDAV:  cpu time    0.6793: real time    0.6794
       DOS:  cpu time    0.0063: real time    0.0063
    --------------------------------------------
      LOOP:  cpu time    0.6856: real time    0.6856

 eigenvalue-minimisations  :  8888
 total energy-change (2. order) :-0.1479600E-01  (-0.1478940E-01)
 number of electron      16.0000000 magnetization 
 augmentation part       16.0000000 magnetization 

 Free energy of the ion-electron system (eV)
  ---------------------------------------------------
  alpha Z        PSCENC =       152.37754207
  Ewald energy   TEWEN  =     -1275.90119180
  -Hartree energ DENC   =      -189.95599937
  -exchange      EXHF   =         0.00000000
  -V(xc)+E(xc)   XCENC  =         9.25695896
  PAW double counting   =      1109.69170683    -1125.09647265
  entropy T*S    EENTRO =        -0.00067943
  eigenvalues    EBANDS =       112.26329729
  atomic energy  EATOM  =      1188.57490811
  Solvation  Ediel_sol  =         0.00000000
  ---------------------------------------------------
  free energy    TOTEN  =       -18.78993000 eV

  energy without entropy =      -18.78925057  energy(sigma->0) =      -18.78970352


--------------------------------------------------------------------------------------------------------




--------------------------------------- Iteration      1(   5)  ---------------------------------------


     EDDAV:  cpu time    0.6995: real time    0.6996
       DOS:  cpu time    0.0061: real time    0.0061
    CHARGE:  cpu time    0.0176: real time    0.0176
    MIXING:  cpu time    0.0002: real time    0.0002
    --------------------------------------------
      LOOP:  cpu time    0.7234: real time    0.7235

 eigenvalue-minimisations  :  9296
 total energy-change (2. order) :-0.1019618E-04  (-0.1019546E-04)
 number of electron      16.0000196 magnetization 
 augmentation part        7.1658329 magnetization 

 Broyden mixing:
  rms(total) = 0.19310E+01    rms(broyden)= 0.19310E+01
  rms(prec ) = 0.30344E+01
  weight for this iteration     100.00

 Free energy of the ion-electron system (eV)
  ---------------------------------------------------
  alpha Z        PSCENC =       152.37754207
  Ewald energy   TEWEN  =     -1275.90119180
  -Hartree energ DENC   =      -189.95599937
  -exchange      EXHF   =         0.00000000
  -V(xc)+E(xc)   XCENC  =         9.25695896
  PAW double counting   =      1109.69170683    -1125.09647265
  entropy T*S    EENTRO =        -0.00067941
  eigenvalues    EBANDS =       112.26328706
  atomic energy  EATOM  =      1188.57490811
  Solvation  Ediel_sol  =         0.00000000
  ---------------------------------------------------
  free energy    TOTEN  =       -18.78994019 eV

  energy without entropy =      -18.78926079  energy(sigma->0) =      -18.78971373


--------------------------------------------------------------------------------------------------------




--------------------------------------- Iteration      1(   6)  ---------------------------------------


    POTLOK:  cpu time    0.0029: real time    0.0029
    SETDIJ:  cpu time    0.0022: real time    0.0022
     EDDAV:  cpu time    0.8333: real time    0.8333
       DOS:  cpu time    0.0063: real time    0.0063
    CHARGE:  cpu time    0.0175: real time    0.0175
    MIXING:  cpu time    0.0002: real time    0.0002
    --------------------------------------------
      LOOP:  cpu time    0.8624: real time    0.8624

 eigenvalue-minimisations  : 11224
 total energy-change (2. order) : 0.2700982E+01  (-0.1384815E+00)
 number of electron      16.0000235 magnetization 
 augmentation part        8.3402418 magnetization 

 Broyden mixing:
  rms(total) = 0.14108E+00    rms(broyden)= 0.14099E+00
  rms(prec ) = 0.19494E+00
  weight for this iteration     100.00

 eigenvalues of (default mixing * dielectric matrix)
  average eigenvalue GAMMA=   1.0101
  1.0101

 Free energy of the ion-electron system (eV)
  ---------------------------------------------------
  alpha Z        PSCENC =       152.37754207
  Ewald energy   TEWEN  =     -1275.90119180
  -Hartree energ DENC   =      -158.86539402
  -exchange      EXHF   =         0.00000000
  -V(xc)+E(xc)   XCENC  =         7.72720469
  PAW double counting   =      1327.12805647    -1339.20828172
  entropy T*S    EENTRO =         0.00034388
  eigenvalues    EBANDS =        82.07785392
  atomic energy  EATOM  =      1188.57490811
  Solvation  Ediel_sol  =         0.00000000
  ---------------------------------------------------
  free energy    TOTEN  =       -16.08895840 eV

  energy without entropy =      -16.08930228  energy(sigma->0) =      -16.08907303


--------------------------------------------------------------------------------------------------------




--------------------------------------- Iteration      1(   7)  ---------------------------------------


    POTLOK:  cpu time    0.0029: real time    0.0029
    SETDIJ:  cpu time    0.0021: real time    0.0021
     EDDAV:  cpu time    0.7331: real time    0.7331
       DOS:  cpu time    0.0064: real time    0.0064
    CHARGE:  cpu time    0.0172: real time    0.0172
    MIXING:  cpu time    0.0002: real time    0.0002
    --------------------------------------------
      LOOP:  cpu time    0.7620: real time    0.7620

 eigenvalue-minimisations  :  9752
 total energy-change (2. order) : 0.1220444E+00  (-0.6389892E-02)
 number of electron      16.0000229 magnetization 
 augmentation part        8.1723160 magnetization 

 Broyden mixing:
  rms(total) = 0.13881E+00    rms(broyden)= 0.13881E+00
  rms(prec ) = 0.21343E+00
  weight for this iteration     100.00

 eigenvalues of (default mixing * dielectric matrix)
  average eigenvalue GAMMA=   1.1316
  0.8173  1.4458

 Free energy of the ion-electron system (eV)
  ---------------------------------------------------
  alpha Z        PSCENC =       152.37754207
  Ewald energy   TEWEN  =     -1275.90119180
  -Hartree energ DENC   =      -160.26148907
  -exchange      EXHF   =         0.00000000
  -V(xc)+E(xc)   XCENC  =         7.82371185
  PAW double counting   =      1433.90392725    -1449.37251809
  entropy T*S    EENTRO =         0.00023082
  eigenvalues    EBANDS =        86.88796483
  atomic energy  EATOM  =      1188.57490811
  Solvation  Ediel_sol  =         0.00000000
  ---------------------------------------------------
  free energy    TOTEN  =       -15.96691402 eV

  energy without entropy =      -15.96714485  energy(sigma->0) =      -15.96699096


--------------------------------------------------------------------------------------------------------




--------------------------------------- Iteration      1(   8)  ---------------------------------------


    POTLOK:  cpu time    0.0028: real time    0.0028
    SETDIJ:  cpu time    0.0021: real time    0.0021
     EDDAV:  cpu time    0.7661: real time    0.7661
       DOS:  cpu time    0.0064: real time    0.0064
    CHARGE:  cpu time    0.0171: real time    0.0171
    MIXING:  cpu time    0.0002: real time    0.0002
    --------------------------------------------
      LOOP:  cpu time    0.7947: real time    0.7947

 eigenvalue-minimisations  : 10280
 total energy-change (2. order) : 0.3452186E-01  (-0.2147732E-03)
 number of electron      16.0000230 magnetization 
 augmentation part        8.1951216 magnetization 

 Broyden mixing:
  rms(total) = 0.55507E-01    rms(broyden)= 0.55507E-01
  rms(prec ) = 0.82492E-01
  weight for this iteration     100.00

 eigenvalues of (default mixing * dielectric matrix)
  average eigenvalue GAMMA=   1.5316
  2.6818  1.0621  0.8508

 Free energy of the ion-electron system (eV)
  ---------------------------------------------------
  alpha Z        PSCENC =       152.37754207
  Ewald energy   TEWEN  =     -1275.90119180
  -Hartree energ DENC   =      -157.93285778
  -exchange      EXHF   =         0.00000000
  -V(xc)+E(xc)   XCENC  =         7.73026694
  PAW double counting   =      1534.89890610    -1552.21521398
  entropy T*S    EENTRO =         0.00024482
  eigenvalues    EBANDS =        86.53500335
  atomic energy  EATOM  =      1188.57490811
  Solvation  Ediel_sol  =         0.00000000
  ---------------------------------------------------
  free energy    TOTEN  =       -15.93239216 eV

  energy without entropy =      -15.93263698  energy(sigma->0) =      -15.93247377


--------------------------------------------------------------------------------------------------------




--------------------------------------- Iteration      1(   9)  ---------------------------------------


    POTLOK:  cpu time    0.0028: real time    0.0028
    SETDIJ:  cpu time    0.0021: real time    0.0021
     EDDAV:  cpu time    0.7893: real time    0.7893
       DOS:  cpu time    0.0062: real time    0.0062
    CHARGE:  cpu time    0.0173: real time    0.0173
    MIXING:  cpu time    0.0002: real time    0.0002
    --------------------------------------------
      LOOP:  cpu time    0.8180: real time    0.8180

 eigenvalue-minimisations  : 10544
 total energy-change (2. order) : 0.7934261E-02  (-0.8107408E-04)
 number of electron      16.0000231 magnetization 
 augmentation part        8.2051373 magnetization 

 Broyden mixing:
  rms(total) = 0.64511E-02    rms(broyden)= 0.64506E-02
  rms(prec ) = 0.89543E-02
  weight for this iteration     100.00

 eigenvalues of (default mixing * dielectric matrix)
  average eigenvalue GAMMA=   1.6370
  2.6690  0.8561  0.9979  2.0249

 Free energy of the ion-electron system (eV)
  ---------------------------------------------------
  alpha Z        PSCENC =       152.37754207
  Ewald energy   TEWEN  =     -1275.90119180
  -Hartree energ DENC   =      -156.23148486
  -exchange      EXHF   =         0.00000000
  -V(xc)+E(xc)   XCENC  =         7.66565940
  PAW double counting   =      1626.11291058    -1645.00242956
  entropy T*S    EENTRO =         0.00024867
  eigenvalues    EBANDS =        86.47937948
  atomic energy  EATOM  =      1188.57490811
  Solvation  Ediel_sol  =         0.00000000
  ---------------------------------------------------
  free energy    TOTEN  =       -15.92445790 eV

  energy without entropy =      -15.92470657  energy(sigma->0) =      -15.92454079


--------------------------------------------------------------------------------------------------------




--------------------------------------- Iteration      1(  10)  ---------------------------------------


    POTLOK:  cpu time    0.0028: real time    0.0028
    SETDIJ:  cpu time    0.0021: real time    0.0021
     EDDAV:  cpu time    0.6528: real time    0.6528
       DOS:  cpu time    0.0064: real time    0.0064
    CHARGE:  cpu time    0.0172: real time    0.0172
    MIXING:  cpu time    0.0002: real time    0.0002
    --------------------------------------------
      LOOP:  cpu time    0.6815: real time    0.6815

 eigenvalue-minimisations  :  8544
 total energy-change (2. order) : 0.1260181E-04  (-0.2604559E-05)
 number of electron      16.0000230 magnetization 
 augmentation part        8.2047283 magnetization 

 Broyden mixing:
  rms(total) = 0.19743E-02    rms(broyden)= 0.19739E-02
  rms(prec ) = 0.29957E-02
  weight for this iteration     100.00

 eigenvalues of (default mixing * dielectric matrix)
  average eigenvalue GAMMA=   1.6497
  2.6148  2.4960  0.8552  1.0021  1.2801

 Free energy of the ion-electron system (eV)
  ---------------------------------------------------
  alpha Z        PSCENC =       152.37754207
  Ewald energy   TEWEN  =     -1275.90119180
  -Hartree energ DENC   =      -156.34413524
  -exchange      EXHF   =         0.00000000
  -V(xc)+E(xc)   XCENC  =         7.67133920
  PAW double counting   =      1625.96494071    -1644.74170456
  entropy T*S    EENTRO =         0.00024548
  eigenvalues    EBANDS =        86.47361071
  atomic energy  EATOM  =      1188.57490811
  Solvation  Ediel_sol  =         0.00000000
  ---------------------------------------------------
  free energy    TOTEN  =       -15.92444530 eV

  energy without entropy =      -15.92469078  energy(sigma->0) =      -15.92452713


--------------------------------------------------------------------------------------------------------




--------------------------------------- Iteration      1(  11)  ---------------------------------------


    POTLOK:  cpu time    0.0029: real time    0.0029
    SETDIJ:  cpu time    0.0021: real time    0.0021
     EDDAV:  cpu time    0.6416: real time    0.6417
       DOS:  cpu time    0.0064: real time    0.0064
    CHARGE:  cpu time    0.0174: real time    0.0174
    MIXING:  cpu time    0.0002: real time    0.0002
    --------------------------------------------
      LOOP:  cpu time    0.6707: real time    0.6707

 eigenvalue-minimisations  :  8048
 total energy-change (2. order) : 0.1346818E-04  (-0.1749993E-07)
 number of electron      16.0000230 magnetization 
 augmentation part        8.2044729 magnetization 

 Broyden mixing:
  rms(total) = 0.14831E-03    rms(broyden)= 0.14826E-03
  rms(prec ) = 0.22625E-03
  weight for this iteration     100.00

 eigenvalues of (default mixing * dielectric matrix)
  average eigenvalue GAMMA=   1.5806
  2.5799  2.5799  0.8551  1.0126  1.0126  1.4434

 Free energy of the ion-electron system (eV)
  ---------------------------------------------------
  alpha Z        PSCENC =       152.37754207
  Ewald energy   TEWEN  =     -1275.90119180
  -Hartree energ DENC   =      -156.40342976
  -exchange      EXHF   =         0.00000000
  -V(xc)+E(xc)   XCENC  =         7.67408474
  PAW double counting   =      1625.12382236    -1643.84265344
  entropy T*S    EENTRO =         0.00024551
  eigenvalues    EBANDS =        86.47224037
  atomic energy  EATOM  =      1188.57490811
  Solvation  Ediel_sol  =         0.00000000
  ---------------------------------------------------
  free energy    TOTEN  =       -15.92443183 eV

  energy without entropy =      -15.92467734  energy(sigma->0) =      -15.92451367


--------------------------------------------------------------------------------------------------------




--------------------------------------- Iteration      1(  12)  ---------------------------------------


    POTLOK:  cpu time    0.0030: real time    0.0030
    SETDIJ:  cpu time    0.0021: real time    0.0021
     EDDAV:  cpu time    0.5228: real time    0.5228
       DOS:  cpu time    0.0064: real time    0.0064
    --------------------------------------------
      LOOP:  cpu time    0.5343: real time    0.5343

 eigenvalue-minimisations  :  5728
 total energy-change (2. order) : 0.7367480E-06  (-0.6407529E-08)
 number of electron      16.0000230 magnetization 
 augmentation part        8.2044729 magnetization 

 Free energy of the ion-electron system (eV)
  ---------------------------------------------------
  alpha Z        PSCENC =       152.37754207
  Ewald energy   TEWEN  =     -1275.90119180
  -Hartree energ DENC   =      -156.40863786
  -exchange      EXHF   =         0.00000000
  -V(xc)+E(xc)   XCENC  =         7.67431472
  PAW double counting   =      1625.10968622    -1643.82355731
  entropy T*S    EENTRO =         0.00024570
  eigenvalues    EBANDS =        86.47225903
  atomic energy  EATOM  =      1188.57490811
  Solvation  Ediel_sol  =         0.00000000
  ---------------------------------------------------
  free energy    TOTEN  =       -15.92443110 eV

  energy without entropy =      -15.92467680  energy(sigma->0) =      -15.92451300


--------------------------------------------------------------------------------------------------------




 average (electrostatic) potential at core
  the test charge radii are     1.0103
  (the norm of the test charge is              1.0000)
       1 -41.3759       2 -41.3759
 
 
 
 E-fermi :   8.2677     XC(G=0): -14.4870     alpha+bet :-17.0872

 Fermi energy:         8.2677074215

 k-point     1 :       0.0000    0.0000    0.0000
  band No.  band energies     occupation 
      1      -1.2831      2.00000
      2       2.6324      2.00000
      3       5.9312      2.00000
      4       6.4061      2.00000
      5       6.4062      2.00000
      6       6.8262      2.00000
      7       6.8262      2.00000
      8       7.7412      2.00125
      9       7.7412      2.00125
     10       7.8838      2.02054
     11       9.1577     -0.00000
     12       9.1577     -0.00000
     13      17.2102      0.00000
     14      32.2619      0.00000
     15      33.9695      0.00000
     16      35.7729      0.00000
     17      38.5398      0.00000
     18      38.5399      0.00000
     19      39.2668      0.00000
     20      39.2670      0.00000
     21      42.0563      0.00000
     22      42.0563      0.00000
     23      42.0861      0.00000
     24      43.2012      0.00000
     25      46.4897      0.00000
     26      46.4898      0.00000
     27      48.1747      0.00000
     28      50.6936      0.00000
     29      50.6941      0.00000
     30      52.6461      0.00000
     31      52.6463      0.00000
     32      56.1251      0.00000
     33      64.2114      0.00000
     34      64.3017      0.00000
     35      64.6730      0.00000
     36      64.6740      0.00000
     37      66.2340      0.00000
     38      68.0933      0.00000
     39      68.0945      0.00000
     40      71.1987      0.00000

 k-point     2 :       0.0909    0.0000    0.0000
  band No.  band energies     occupation 
      1      -0.9283      2.00000
      2       2.8910      2.00000
      3       5.8336      2.00000
      4       6.4334      2.00000
      5       6.6258      2.00000
      6       6.7070      2.00000
      7       6.7465      2.00000
      8       7.0277      2.00000
      9       7.6041      2.00003
     10       7.6131      2.00004
     11       9.2064     -0.00000
     12      10.5466     -0.00000
     13      17.2210      0.00000
     14      31.2326      0.00000
     15      34.1784      0.00000
     16      34.2468      0.00000
     17      35.6058      0.00000
     18      37.8457      0.00000
     19      37.9514      0.00000
     20      41.6147      0.00000
     21      41.7515      0.00000
     22      42.3557      0.00000
     23      43.1061      0.00000
     24      43.4722      0.00000
     25      47.5383      0.00000
     26      47.7368      0.00000
     27      48.1540      0.00000
     28      48.4348      0.00000
     29      51.9897      0.00000
     30      54.3065      0.00000
     31      55.0958      0.00000
     32      57.6345      0.00000
     33      62.6336      0.00000
     34      63.9064      0.00000
     35      63.9821      0.00000
     36      64.9163      0.00000
     37      64.9812      0.00000
     38      68.5984      0.00000
     39      70.2853      0.00000
     40      71.1458      0.00000

 k-point     3 :       0.1818    0.0000    0.0000
  band No.  band energies     occupation 
      1       0.0682      2.00000
      2       3.4888      2.00000
      3       5.4358      2.00000
      4       5.4833      2.00000
      5       6.2704      2.00000
      6       6.9493      2.00000
      7       7.2368      2.00000
      8       7.2585      2.00000
      9       7.2845      2.00000
     10       7.5825      2.00001
     11       9.2940     -0.00000
     12      12.6248     -0.00000
     13      17.2854      0.00000
     14      27.6767      0.00000
     15      32.5894      0.00000
     16      32.9296      0.00000
     17      33.5288      0.00000
     18      34.9295      0.00000
     19      38.8395      0.00000
     20      40.7489      0.00000
     21      40.9139      0.00000
     22      41.3352      0.00000
     23      43.7944      0.00000
     24      45.4774      0.00000
     25      47.6379      0.00000
     26      48.4429      0.00000
     27      50.1166      0.00000
     28      52.5482      0.00000
     29      55.3176      0.00000
     30      57.1750      0.00000
     31      57.8058      0.00000
     32      60.3390      0.00000
     33      60.9965      0.00000
     34      62.3545      0.00000
     35      62.4467      0.00000
     36      63.4348      0.00000
     37      65.9718      0.00000
     38      69.2622      0.00000
     39      71.0974      0.00000
     40      71.7814      0.00000

 k-point     4 :       0.2727    0.0000    0.0000
  band No.  band energies     occupation 
      1       1.4534      2.00000
      2       3.7484      2.00000
      3       4.4103      2.00000
      4       5.3817      2.00000
      5       6.1070      2.00000
      6       6.8146      2.00000
      7       6.9235      2.00000
      8       7.8080      2.00543
      9       8.1065      1.98325
     10       8.3606      0.30036
     11       9.3563     -0.00000
     12      14.9128      0.00000
     13      17.4247      0.00000
     14      23.6746      0.00000
     15      29.8701      0.00000
     16      29.9941      0.00000
     17      31.5160      0.00000
     18      34.4612      0.00000
     19      37.4132      0.00000
     20      40.3724      0.00000
     21      41.3049      0.00000
     22      41.5057      0.00000
     23      41.5079      0.00000
     24      45.8298      0.00000
     25      51.0461      0.00000
     26      52.8270      0.00000
     27      53.6611      0.00000
     28      55.7099      0.00000
     29      57.0762      0.00000
     30      57.8516      0.00000
     31      59.5158      0.00000
     32      61.1374      0.00000
     33      61.4290      0.00000
     34      62.4279      0.00000
     35      62.8244      0.00000
     36      65.1286      0.00000
     37      65.8144      0.00000
     38      69.7769      0.00000
     39      70.8822      0.00000
     40      71.5032      0.00000

 k-point     5 :       0.3636    0.0000    0.0000
  band No.  band energies     occupation 
      1       2.6233      2.00000
      2       3.4534      2.00000
      3       3.7138      2.00000
      4       5.6599      2.00000
      5       6.4245      2.00000
      6       6.4774      2.00000
      7       6.6272      2.00000
      8       8.9840     -0.00001
      9       9.1517     -0.00000
     10       9.1753     -0.00000
     11       9.3841     -0.00000
     12      16.9943      0.00000
     13      17.3122      0.00000
     14      20.9494      0.00000
     15      26.5826      0.00000
     16      27.9960      0.00000
     17      28.8986      0.00000
     18      33.4288      0.00000
     19      36.1415      0.00000
     20      39.3860      0.00000
     21      40.0476      0.00000
     22      42.3675      0.00000
     23      43.6939      0.00000
     24      46.2545      0.00000
     25      54.3490      0.00000
     26      54.7205      0.00000
     27      54.8903      0.00000
     28      57.9693      0.00000
     29      58.5626      0.00000
     30      59.1546      0.00000
     31      61.4696      0.00000
     32      61.7842      0.00000
     33      62.3737      0.00000
     34      62.8610      0.00000
     35      63.9542      0.00000
     36      65.7348      0.00000
     37      69.8055      0.00000
     38      70.1288      0.00000
     39      70.2324      0.00000
     40      70.3893      0.00000

 k-point     6 :       0.4545    0.0000    0.0000
  band No.  band energies     occupation 
      1       2.9749      2.00000
      2       3.2709      2.00000
      3       3.3624      2.00000
      4       6.2003      2.00000
      5       6.2462      2.00000
      6       6.4622      2.00000
      7       6.7551      2.00000
      8       9.3898     -0.00000
      9       9.5286     -0.00000
     10       9.6900     -0.00000
     11      11.0095     -0.00000
     12      14.7673      0.00000
     13      19.5492      0.00000
     14      21.0978      0.00000
     15      23.9225      0.00000
     16      26.3016      0.00000
     17      26.8684      0.00000
     18      32.7381      0.00000
     19      35.7289      0.00000
     20      38.1869      0.00000
     21      39.8972      0.00000
     22      43.1988      0.00000
     23      45.8353      0.00000
     24      46.5969      0.00000
     25      51.0295      0.00000
     26      56.0138      0.00000
     27      56.7093      0.00000
     28      59.8104      0.00000
     29      60.8898      0.00000
     30      61.0044      0.00000
     31      62.6396      0.00000
     32      62.7181      0.00000
     33      62.8978      0.00000
     34      65.5525      0.00000
     35      65.6360      0.00000
     36      67.7803      0.00000
     37      68.4794      0.00000
     38      68.5342      0.00000
     39      70.4931      0.00000
     40      70.6453      0.00000

 k-point     7 :       0.0909    0.0909    0.0000
  band No.  band energies     occupation 
      1      -0.2493      2.00000
      2       3.3400      2.00000
      3       5.5448      2.00000
      4       5.7852      2.00000
      5       6.4739      2.00000
      6       6.6173      2.00000
      7       7.0722      2.00000
      8       7.1406      2.00000
      9       7.4625      2.00000
     10       7.6061      2.00003
     11       9.2421     -0.00000
     12      12.0542     -0.00000
     13      17.2675      0.00000
     14      29.3348      0.00000
     15      30.9276      0.00000
     16      34.5321      0.00000
     17      35.0516      0.00000
     18      36.4801      0.00000
     19      36.9065      0.00000
     20      39.4942      0.00000
     21      41.1809      0.00000
     22      44.6477      0.00000
     23      44.7772      0.00000
     24      45.7473      0.00000
     25      46.5298      0.00000
     26      46.7908      0.00000
     27      47.0680      0.00000
     28      52.8649      0.00000
     29      55.5055      0.00000
     30      56.1770      0.00000
     31      56.2454      0.00000
     32      59.7188      0.00000
     33      61.0757      0.00000
     34      63.1916      0.00000
     35      63.4080      0.00000
     36      63.6353      0.00000
     37      64.8927      0.00000
     38      69.6017      0.00000
     39      70.9686      0.00000
     40      71.7261      0.00000

 k-point     8 :       0.1818    0.0909    0.0000
  band No.  band energies     occupation 
      1       0.9723      2.00000
      2       3.8957      2.00000
      3       4.7862      2.00000
      4       5.1449      2.00000
      5       6.1915      2.00000
      6       6.6755      2.00000
      7       7.1136      2.00000
      8       7.3299      2.00000
      9       7.8733      2.01750
     10       8.2732      0.95323
     11       9.2711     -0.00000
     12      14.1152      0.00000
     13      17.4221      0.00000
     14      25.7075      0.00000
     15      28.4128      0.00000
     16      31.6117      0.00000
     17      34.0148      0.00000
     18      34.4292      0.00000
     19      37.7590      0.00000
     20      39.0576      0.00000
     21      39.6880      0.00000
     22      44.3105      0.00000
     23      44.6499      0.00000
     24      45.3736      0.00000
     25      48.4468      0.00000
     26      49.3123      0.00000
     27      51.1070      0.00000
     28      56.2032      0.00000
     29      57.6679      0.00000
     30      58.7328      0.00000
     31      58.7964      0.00000
     32      60.8227      0.00000
     33      61.1416      0.00000
     34      62.4153      0.00000
     35      62.7283      0.00000
     36      63.2481      0.00000
     37      65.3690      0.00000
     38      70.1490      0.00000
     39      70.4796      0.00000
     40      71.5092      0.00000

 k-point     9 :       0.2727    0.0909    0.0000
  band No.  band energies     occupation 
      1       2.3523      2.00000
      2       3.8068      2.00000
      3       4.0166      2.00000
      4       5.2302      2.00000
      5       6.2777      2.00000
      6       6.3242      2.00000
      7       6.9137      2.00000
      8       7.9535      2.04883
      9       8.7605     -0.00271
     10       9.2842     -0.00000
     11       9.3352     -0.00000
     12      16.4233      0.00000
     13      17.6025      0.00000
     14      22.0436      0.00000
     15      26.5876      0.00000
     16      28.2870      0.00000
     17      31.2742      0.00000
     18      32.7436      0.00000
     19      37.2698      0.00000
     20      38.4053      0.00000
     21      40.2921      0.00000
     22      44.1858      0.00000
     23      44.2538      0.00000
     24      46.7108      0.00000
     25      50.6040      0.00000
     26      53.2069      0.00000
     27      55.1797      0.00000
     28      56.3378      0.00000
     29      56.6734      0.00000
     30      59.8407      0.00000
     31      60.6478      0.00000
     32      62.0685      0.00000
     33      62.3991      0.00000
     34      62.9327      0.00000
     35      63.7111      0.00000
     36      65.2323      0.00000
     37      68.1897      0.00000
     38      69.5112      0.00000
     39      69.7221      0.00000
     40      71.8825      0.00000

 k-point    10 :       0.3636    0.0909    0.0000
  band No.  band energies     occupation 
      1       3.1293      2.00000
      2       3.4959      2.00000
      3       3.5425      2.00000
      4       5.7279      2.00000
      5       6.1558      2.00000
      6       6.5219      2.00000
      7       6.6600      2.00000
      8       8.9433     -0.00002
      9       9.2848     -0.00000
     10       9.3932     -0.00000
     11      10.6916     -0.00000
     12      16.3007      0.00000
     13      18.8151      0.00000
     14      20.8625      0.00000
     15      25.1766      0.00000
     16      25.2961      0.00000
     17      28.0786      0.00000
     18      31.7722      0.00000
     19      36.2928      0.00000
     20      37.8222      0.00000
     21      41.0793      0.00000
     22      44.6598      0.00000
     23      45.7645      0.00000
     24      46.7161      0.00000
     25      52.9327      0.00000
     26      53.4178      0.00000
     27      55.9562      0.00000
     28      57.2444      0.00000
     29      59.1438      0.00000
     30      60.7785      0.00000
     31      61.0652      0.00000
     32      62.3838      0.00000
     33      62.9670      0.00000
     34      65.2162      0.00000
     35      66.5634      0.00000
     36      67.0931      0.00000
     37      67.3436      0.00000
     38      70.0592      0.00000
     39      71.0604      0.00000
     40      71.4745      0.00000

 k-point    11 :       0.4545    0.0909    0.0000
  band No.  band energies     occupation 
      1       3.1762      2.00000
      2       3.3828      2.00000
      3       3.4633      2.00000
      4       6.1206      2.00000
      5       6.1510      2.00000
      6       6.3208      2.00000
      7       6.8046      2.00000
      8       9.2825     -0.00000
      9       9.4957     -0.00000
     10       9.5090     -0.00000
     11      12.0132     -0.00000
     12      14.4292      0.00000
     13      20.4217      0.00000
     14      21.5368      0.00000
     15      23.4878      0.00000
     16      24.4263      0.00000
     17      26.5215      0.00000
     18      31.4170      0.00000
     19      35.8575      0.00000
[...]
     17      28.9865      0.00000
     18      30.3455      0.00000
     19      35.4922      0.00000
     20      36.1222      0.00000
     21      40.2039      0.00000
     22      40.9678      0.00000
     23      45.7340      0.00000
     24      46.8965      0.00000
     25      52.8971      0.00000
     26      54.7047      0.00000
     27      56.6333      0.00000
     28      57.3436      0.00000
     29      60.5497      0.00000
     30      61.6288      0.00000
     31      62.3323      0.00000
     32      62.7496      0.00000
     33      64.8952      0.00000
     34      65.3228      0.00000
     35      66.1983      0.00000
     36      66.7814      0.00000
     37      67.9620      0.00000
     38      69.5740      0.00000
     39      71.1821      0.00000
     40      71.7016      0.00000

 k-point    91 :       0.4545    0.0909    0.4545
  band No.  band energies     occupation 
      1       2.8326      2.00000
      2       3.0105      2.00000
      3       4.4178      2.00000
      4       4.5633      2.00000
      5       6.9770      2.00000
      6       7.4696      2.00000
      7       8.2221      1.37477
      8       8.5641     -0.05688
      9       9.3826     -0.00000
     10       9.3953     -0.00000
     11      11.8840     -0.00000
     12      12.4502     -0.00000
     13      19.0393      0.00000
     14      19.0748      0.00000
     15      27.3614      0.00000
     16      28.1753      0.00000
     17      29.7855      0.00000
     18      30.3404      0.00000
     19      35.3119      0.00000
     20      35.4183      0.00000
     21      39.5043      0.00000
     22      39.7985      0.00000
     23      45.9011      0.00000
     24      47.0960      0.00000
     25      53.1815      0.00000
     26      55.0532      0.00000
     27      59.5257      0.00000
     28      60.1441      0.00000
     29      60.3089      0.00000
     30      60.8135      0.00000
     31      61.8800      0.00000
     32      62.4985      0.00000
     33      66.0324      0.00000
     34      66.2054      0.00000
     35      66.8407      0.00000
     36      67.7827      0.00000
     37      69.0877      0.00000
     38      69.5155      0.00000
     39      71.6944      0.00000
     40      71.9464      0.00000

 k-point    92 :       0.1818    0.1818    0.4545
  band No.  band energies     occupation 
      1       3.0617      2.00000
      2       3.3296      2.00000
      3       5.0697      2.00000
      4       5.1314      2.00000
      5       5.6520      2.00000
      6       5.7237      2.00000
      7       7.3598      2.00000
      8       7.6519      2.00012
      9       9.1629     -0.00000
     10       9.2708     -0.00000
     11       9.8570     -0.00000
     12      10.5107     -0.00000
     13      25.2510      0.00000
     14      25.7098      0.00000
     15      25.9927      0.00000
     16      27.1711      0.00000
     17      27.7645      0.00000
     18      29.3782      0.00000
     19      39.5440      0.00000
     20      40.6336      0.00000
     21      41.2532      0.00000
     22      42.4122      0.00000
     23      44.6756      0.00000
     24      44.7720      0.00000
     25      51.2885      0.00000
     26      51.8154      0.00000
     27      55.6063      0.00000
     28      55.9014      0.00000
     29      58.1994      0.00000
     30      59.6613      0.00000
     31      60.6027      0.00000
     32      61.1008      0.00000
     33      62.2729      0.00000
     34      62.3058      0.00000
     35      64.3185      0.00000
     36      64.5183      0.00000
     37      67.8992      0.00000
     38      69.4997      0.00000
     39      70.1171      0.00000
     40      70.2561      0.00000

 k-point    93 :       0.2727    0.1818    0.4545
  band No.  band energies     occupation 
      1       3.3383      2.00000
      2       3.4581      2.00000
      3       4.8506      2.00000
      4       5.1013      2.00000
      5       5.9630      2.00000
      6       6.1643      2.00000
      7       7.3187      2.00000
      8       7.5981      2.00002
      9       9.2821     -0.00000
     10       9.5564     -0.00000
     11      11.4754     -0.00000
     12      12.0820     -0.00000
     13      22.0260      0.00000
     14      22.6506      0.00000
     15      24.9202      0.00000
     16      25.7157      0.00000
     17      28.5778      0.00000
     18      30.4765      0.00000
     19      37.5235      0.00000
     20      39.0353      0.00000
     21      40.5073      0.00000
     22      41.9878      0.00000
     23      44.9357      0.00000
     24      45.4896      0.00000
     25      52.5664      0.00000
     26      53.1205      0.00000
     27      56.8853      0.00000
     28      58.5453      0.00000
     29      60.5869      0.00000
     30      61.8782      0.00000
     31      62.4113      0.00000
     32      62.6583      0.00000
     33      63.6280      0.00000
     34      63.8483      0.00000
     35      64.4639      0.00000
     36      64.9213      0.00000
     37      68.3363      0.00000
     38      70.2553      0.00000
     39      70.4714      0.00000
     40      71.1690      0.00000

 k-point    94 :       0.3636    0.1818    0.4545
  band No.  band energies     occupation 
      1       3.3325      2.00000
      2       3.5150      2.00000
      3       4.7066      2.00000
      4       4.9545      2.00000
      5       6.0799      2.00000
      6       6.4806      2.00000
      7       7.7188      2.00072
      8       7.8646      2.01520
      9       9.2347     -0.00000
     10       9.4301     -0.00000
     11      13.2784     -0.00000
     12      13.7604      0.00000
     13      19.4227      0.00000
     14      19.8173      0.00000
     15      24.2525      0.00000
     16      25.0608      0.00000
     17      30.1851      0.00000
     18      31.4042      0.00000
     19      36.1151      0.00000
     20      37.2238      0.00000
     21      39.3161      0.00000
     22      40.9063      0.00000
     23      45.8987      0.00000
     24      46.3170      0.00000
     25      55.6404      0.00000
     26      56.2109      0.00000
     27      57.2876      0.00000
     28      58.9713      0.00000
     29      60.0226      0.00000
     30      60.5209      0.00000
     31      62.1298      0.00000
     32      62.9172      0.00000
     33      64.7207      0.00000
     34      65.1046      0.00000
     35      66.7093      0.00000
     36      67.4398      0.00000
     37      68.9715      0.00000
     38      69.4418      0.00000
     39      70.1452      0.00000
     40      71.4359      0.00000

 k-point    95 :       0.2727    0.2727    0.4545
  band No.  band energies     occupation 
      1       3.7703      2.00000
      2       3.8420      2.00000
      3       4.9259      2.00000
      4       5.1776      2.00000
      5       5.6282      2.00000
      6       5.8839      2.00000
      7       7.2639      2.00000
      8       7.4998      2.00000
      9       9.2514     -0.00000
     10       9.4595     -0.00000
     11      13.7713      0.00000
     12      14.3467      0.00000
     13      20.3531      0.00000
     14      20.8371      0.00000
     15      22.4962      0.00000
     16      22.9448      0.00000
     17      30.3928      0.00000
     18      32.1598      0.00000
     19      36.1038      0.00000
     20      37.6686      0.00000
     21      39.1426      0.00000
     22      40.4086      0.00000
     23      47.7267      0.00000
     24      48.1672      0.00000
     25      52.8142      0.00000
     26      52.8865      0.00000
     27      59.6673      0.00000
     28      60.2454      0.00000
     29      60.3114      0.00000
     30      61.5197      0.00000
     31      62.8770      0.00000
     32      63.0619      0.00000
     33      63.2195      0.00000
     34      63.6195      0.00000
     35      66.8736      0.00000
     36      67.2458      0.00000
     37      68.0900      0.00000
     38      68.4343      0.00000
     39      69.2080      0.00000
     40      70.9579      0.00000

 k-point    96 :       0.3636    0.2727    0.4545
  band No.  band energies     occupation 
      1       3.9912      2.00000
      2       4.1475      2.00000
      3       4.8099      2.00000
      4       4.8904      2.00000
      5       5.6822      2.00000
      6       5.8124      2.00000
      7       7.3508      2.00000
      8       7.5316      2.00000
      9       9.2137     -0.00000
     10       9.2931     -0.00000
     11      15.6766      0.00000
     12      15.8259      0.00000
     13      18.6497      0.00000
     14      19.0465      0.00000
     15      21.8498      0.00000
     16      22.3081      0.00000
     17      32.0517      0.00000
     18      33.0369      0.00000
     19      35.3419      0.00000
     20      35.5489      0.00000
     21      38.9579      0.00000
     22      39.8453      0.00000
     23      49.0962      0.00000
     24      49.7892      0.00000
     25      53.8065      0.00000
     26      54.2143      0.00000
     27      57.3201      0.00000
     28      57.6726      0.00000
     29      61.1977      0.00000
     30      62.4341      0.00000
     31      62.9391      0.00000
     32      63.1762      0.00000
     33      64.3166      0.00000
     34      64.6314      0.00000
     35      65.1093      0.00000
     36      66.5756      0.00000
     37      68.6433      0.00000
     38      70.8102      0.00000
     39      71.1291      0.00000
     40      71.6946      0.00000


--------------------------------------------------------------------------------------------------------


 soft charge-density along one line, spin component           1
         0         1         2         3         4         5         6         7         8         9
x     7.7956    0.0000    0.0815   -0.1411   -0.0551   -0.0954    0.0209   -0.0000    0.0012   -0.0021
x     0.0000    0.0000
y     7.7956    0.0000    0.0815    0.1411   -0.0551    0.0954    0.0209    0.0000    0.0012    0.0021
y     0.0000    0.0000
z     7.7956    0.0000    0.0000    0.0000    0.2807    0.0000    0.0000   -0.0000   -0.1404    0.0000
z     0.0000   -0.0000    0.0231   -0.0000    0.0000    0.0000    0.0000    0.0000
 total charge-density along one line
x    16.0000    0.0000    1.4351   -2.4857    0.2722    0.4715    0.0130    0.0000    0.0017   -0.0029
x    -0.0002   -0.0004    0.0003   -0.0000   -0.0000    0.0001    0.0000    0.0001   -0.0001    0.0000
x     0.0000    0.0000
y    16.0000    0.0000    1.4351    2.4857    0.2722   -0.4715    0.0130   -0.0000    0.0017    0.0029
y    -0.0002    0.0004    0.0003    0.0000   -0.0000   -0.0001    0.0000   -0.0001   -0.0001   -0.0000
y     0.0000   -0.0000
z    16.0000    0.0000    0.0000   -0.0000    5.6312    0.0000    0.0000   -0.0000    1.0858    0.0000
z     0.0000    0.0000    0.0088   -0.0000    0.0000    0.0000    0.0049    0.0000    0.0000    0.0000
z    -0.0016    0.0000    0.0000    0.0000    0.0007    0.0000    0.0000    0.0000   -0.0005    0.0000
z    -0.0000    0.0000    0.0004    0.0000
 
 pseudopotential strength for first ion, spin component:           1
 -3.631   0.000  -0.000  -0.000  -0.000  -4.218   0.000  -0.000
  0.000  -3.624   0.000  -0.000  -0.000   0.000  -4.211   0.000
 -0.000   0.000  -3.634   0.000  -0.000  -0.000   0.000  -4.221
 -0.000  -0.000   0.000  -3.624   0.000  -0.000  -0.000   0.000
 -0.000  -0.000  -0.000   0.000  -3.631  -0.000  -0.000  -0.000
 -4.218   0.000  -0.000  -0.000  -0.000  -4.761   0.000  -0.000
  0.000  -4.211   0.000  -0.000  -0.000   0.000  -4.754   0.000
 -0.000   0.000  -4.221   0.000  -0.000  -0.000   0.000  -4.764
 -0.000  -0.000   0.000  -4.211   0.000  -0.000  -0.000   0.000
 -0.000  -0.000  -0.000   0.000  -4.218  -0.000  -0.000  -0.000
  0.000  -0.000   0.001  -0.000  -0.000   0.000  -0.000   0.001
  0.000  -0.000   0.002  -0.000  -0.000   0.000  -0.000   0.002
 -0.000  -0.000   0.000   0.000  -0.002  -0.000  -0.000   0.000
  0.000  -0.000   0.000   0.000   0.000   0.000  -0.000   0.000
 -0.002   0.000   0.000   0.000  -0.000  -0.002   0.000   0.000
 -0.000  -0.000   0.000   0.000  -0.001  -0.000  -0.000   0.000
  0.000  -0.000   0.000  -0.000   0.000   0.000  -0.000   0.000
 -0.001   0.000   0.000   0.000  -0.000  -0.002   0.000   0.000
 total augmentation occupancy for first ion, spin component:           1
  1.846   0.000   0.000   0.000   0.000  -1.396   0.000  -0.000   0.000  -0.000  -0.000  -0.000   0.000   0.000   0.040  -0.000
 -0.000   2.187   0.000  -0.000   0.000   0.000  -1.560   0.000   0.000  -0.000  -0.000   0.000   0.000  -0.000   0.000   0.000
  0.000   0.000   1.518   0.000  -0.000  -0.000  -0.000  -1.153   0.000   0.000   0.001  -0.006  -0.000   0.000  -0.000  -0.000
  0.000  -0.000   0.000   2.187   0.000   0.000   0.000   0.000  -1.560   0.000   0.000   0.000   0.000  -0.000   0.000   0.000
  0.000  -0.000  -0.000  -0.000   1.846  -0.000   0.000   0.000  -0.000  -1.396   0.000  -0.000   0.040   0.000  -0.000  -0.002
 -1.396   0.000  -0.000   0.000  -0.000   2.323   0.000   0.000   0.000   0.000   0.000  -0.000  -0.000   0.000  -0.058   0.000
  0.000  -1.560  -0.000   0.000   0.000   0.000   2.286   0.000  -0.000   0.000  -0.000   0.000   0.000  -0.000   0.000   0.000
 -0.000   0.000  -1.153  -0.000   0.000   0.000   0.000   2.151  -0.000  -0.000  -0.049   0.003   0.000   0.000  -0.000   0.000
  0.000   0.000   0.000  -1.560   0.000  -0.000  -0.000  -0.000   2.286   0.000  -0.000   0.000   0.000   0.000  -0.000   0.000
 -0.000   0.000   0.000   0.000  -1.396   0.000   0.000  -0.000   0.000   2.323  -0.000   0.000  -0.058   0.000   0.000   0.002
 -0.000  -0.000   0.001   0.000   0.000   0.000   0.000  -0.049   0.000  -0.000   3.039  -0.364   0.000   0.000   0.000  -0.000
 -0.000   0.000  -0.006  -0.000  -0.000  -0.000   0.000   0.003   0.000   0.000  -0.364   0.049  -0.000   0.000   0.000   0.000
  0.000   0.000   0.000   0.000   0.040  -0.000   0.000   0.000   0.000  -0.058  -0.000   0.000   0.414  -0.000  -0.000  -0.033
 -0.000   0.000   0.000  -0.000   0.000   0.000   0.000   0.000   0.000  -0.000   0.000   0.000  -0.000   0.404   0.000  -0.000
  0.040   0.000   0.000   0.000  -0.000  -0.058  -0.000  -0.000  -0.000   0.000   0.000   0.000  -0.000   0.000   0.414   0.000
 -0.000   0.000   0.000   0.000  -0.002   0.000   0.000  -0.000   0.000   0.002   0.000   0.000  -0.033   0.000   0.000   0.003
  0.000  -0.000   0.000  -0.000   0.000  -0.000   0.000   0.000   0.000   0.000   0.000   0.000   0.000  -0.034   0.000   0.000
 -0.002   0.000  -0.000   0.000   0.000   0.002   0.000   0.000   0.000  -0.000  -0.000   0.000   0.000   0.000  -0.033  -0.000


------------------------ aborting loop because EDIFF is reached ----------------------------------------


    CHARGE:  cpu time    0.0172: real time    0.0172
    FORLOC:  cpu time    0.0002: real time    0.0002
    FORNL :  cpu time    0.0978: real time    0.0978
    STRESS:  cpu time    0.1469: real time    0.1469
    FORCOR:  cpu time    0.0030: real time    0.0030
    FORHAR:  cpu time    0.0007: real time    0.0007
    MIXING:  cpu time    0.0002: real time    0.0002

  FORCE on cell =-STRESS in cart. coord.  units (eV):
  Direction    XX          YY          ZZ          XY          YZ          ZX
  --------------------------------------------------------------------------------------
  Alpha Z   152.37754   152.37754   152.37754
  Ewald    -417.03478  -417.03478  -441.83214     0.00000     0.00000    -0.00000
  Hartree    55.00770    55.00771    46.39131    -0.00000    -0.00000    -0.00000
  E(xc)     -79.84098   -79.84099   -79.66663     0.00015     0.00000    -0.00000
  Local     116.76255   116.76273   148.46156    -0.00072    -0.00000    -0.00000
  n-local   -49.99363   -49.63528   -51.60802    -4.52750     1.55841     1.08999
  augment    75.18220    75.18189    75.35784     0.00086     0.00000     0.00000
  Kinetic   157.01555   150.90604   151.77655     0.97862    -1.06923     0.06992
  Fock        0.00000     0.00000     0.00000     0.00000     0.00000     0.00000
  -------------------------------------------------------------------------------------
  Total       6.60050     6.60050     1.25802    -0.00000     0.00000     0.00000
  in kB     582.88604   582.88604   111.09468    -0.00000     0.00000     0.00000
  external pressure =      425.62 kB  Pullay stress =        0.00 kB


 VOLUME and BASIS-vectors are now :
 -----------------------------------------------------------------------------
  energy-cutoff  :      280.00
  volume of cell :       18.14
      direct lattice vectors                 reciprocal lattice vectors
     2.306700000  0.000000000  0.000000000     0.433519747  0.250292743  0.000000000
    -1.153350000  1.997660799  0.000000000     0.000000000  0.500585485  0.000000000
     0.000000000  0.000000000  3.937230000     0.000000000  0.000000000  0.253985670

  length of vectors
     2.306700000  2.306700000  3.937230000     0.500585485  0.500585485  0.253985670


 FORCES acting on ions
    electron-ion (+dipol)            ewald-force                    non-local-force                 convergence-correction
 -----------------------------------------------------------------------------------------------
   0.338E-07 -.802E-06 0.293E-14   0.729E-12 -.416E-12 -.233E-13   -.144E-16 0.154E-16 -.190E-19   -.112E-07 0.641E-08 0.239E-13
   -.592E-05 0.423E-05 0.688E-13   -.726E-12 0.416E-12 0.233E-13   0.166E-16 -.129E-16 0.713E-20   0.113E-07 -.647E-08 -.814E-14
 -----------------------------------------------------------------------------------------------
   -.588E-05 0.343E-05 0.718E-13   0.285E-14 -.549E-15 0.375E-17   0.213E-17 0.252E-17 -.119E-19   0.974E-10 -.581E-10 0.158E-13
 
 
 POSITION                                       TOTAL-FORCE (eV/Angst)
 -----------------------------------------------------------------------------------
      0.00000      0.00000      0.00000         0.000000     -0.000000      0.000000
      0.00000      1.33177      1.96862        -0.000000      0.000000     -0.000000
 -----------------------------------------------------------------------------------
    total drift:                               -0.000006      0.000003      0.000000


--------------------------------------------------------------------------------------------------------



  FREE ENERGIE OF THE ION-ELECTRON SYSTEM (eV)
  ---------------------------------------------------
  free  energy   TOTEN  =       -15.92443110 eV

  energy  without entropy=      -15.92467680  energy(sigma->0) =      -15.92451300
 


--------------------------------------------------------------------------------------------------------


    POTLOK:  cpu time    0.0052: real time    0.0052


--------------------------------------------------------------------------------------------------------


 writing wavefunctions
     LOOP+:  cpu time    8.9580: real time    8.9787
    4ORBIT:  cpu time    0.0000: real time    0.0000

 total amount of memory used by VASP MPI-rank0    48248. kBytes
=======================================================================

   base      :      30000. kBytes
   nonl-proj :       2812. kBytes
   grid      :        721. kBytes
   one-center:         31. kBytes
   wavefun   :      14684. kBytes
 
  
  
 General timing and accounting informations for this job:
 ========================================================
  
                  Total CPU time used (sec):        9.130
                            User time (sec):        9.090
                          System time (sec):        0.040
                         Elapsed time (sec):        9.140
  
                   Maximum memory used (kb):       53088.
                   Average memory used (kb):          N/A
  
                          Minor page faults:         6879
                          Major page faults:            0
                 Voluntary context switches:           26
