unknown system                          
   1.00000000000000     
     2.330000    0.000000    0.000000
    -1.165000    2.017839    0.000000
     0.000000    0.000000    4.100000
   Fe
     2
Direct
  0.000000  0.000000  0.000000
  0.333333  0.666667  0.500000
 
   16   16   32
  160.59      147.92      115.41      75.970      42.334      21.133      11.731      8.9044      8.0239      8.9085    
  11.735      21.133      42.331      75.967      115.41      147.92      147.98      147.92      125.37      89.817    
  54.274      28.303      14.548      9.6782      8.1252      8.1438      9.7078      14.550      28.288      54.306    
  89.929      125.51      115.50      125.43      115.41      89.822      58.964      32.998      17.126      10.491    
  8.3909      7.6257      8.4166      10.500      17.096      32.968      58.995      89.918      75.932      89.794    
  89.812      75.981      54.277      32.994      18.172      11.066      8.6620      7.4556      7.4590      8.6652    
  11.054      18.135      32.935      54.213      42.217      54.112      58.834      54.209      42.335      28.295    
  17.123      11.068      8.7765      7.4745      6.9627      7.4628      8.7786      11.089      17.125      28.231    
  21.128      28.194      32.831      32.858      28.240      21.126      14.547      10.496      8.6649      7.4742    
  6.8278      6.8127      7.4579      8.6958      10.574      14.612      11.821      14.621      17.106      18.090    
  17.072      14.552      11.735      9.6840      8.3921      7.4534      6.9609      6.8116      6.9340      7.4346    
  8.4166      9.7540      8.8920      9.7739      10.605      11.114      11.082      10.539      9.7335      8.9075    
  8.1216      7.6206      7.4587      7.4626      7.4580      7.4365      7.5734      8.0698      7.9106      8.0940    
  8.4687      8.7660      8.8542      8.7416      8.4747      8.1678      8.0190      8.1381      8.4196      8.6698    
  8.7777      8.6976      8.4184      8.0677      8.8881      8.0956      7.6368      7.5356      7.5778      7.5805    
  7.5545      7.6840      8.1516      8.9078      9.7115      10.508      11.052      11.085      10.576      9.7519    
  11.817      9.7751      8.4743      7.5352      7.0708      6.9614      7.0936      7.5488      8.4472      9.7064    
  11.735      14.553      17.094      18.126      17.126      14.616      21.127      14.616      10.610      8.7669    
  7.5712      6.9602      6.9775      7.5912      8.7361      10.528      14.547      21.126      28.289      32.964    
  32.934      28.240      42.219      28.186      17.107      11.118      8.8480      7.5768      7.1004      7.5941    
  8.8521      11.098      17.101      28.245      42.335      54.313      58.994      54.217      75.934      54.109    
  32.827      18.097      11.082      8.7362      7.5608      7.5555      8.7298      11.094      18.137      32.889    
  54.173      75.980      89.927      89.911      115.50      89.801      58.831      32.860      17.077      10.535    
  8.4743      7.6901      8.4412      10.519      17.106      32.895      58.805      89.707      115.41      125.50    
  147.98      125.44      89.812      54.203      28.243      14.553      9.7280      8.1695      8.1517      9.6997    
  14.552      28.257      54.170      89.700      125.31      147.92      150.39      138.55      108.13      71.189    
  39.696      19.954      11.330      8.7354      7.8887      8.7393      11.333      19.954      39.693      71.186    
  108.13      138.56      138.61      138.55      117.45      84.153      50.849      26.586      13.871      9.4460    
  7.9682      7.9859      9.4748      13.874      26.573      50.876      84.252      117.58      108.21      117.52    
  108.13      84.158      55.235      30.947      16.220      10.167      8.2112      7.4792      8.2354      10.176    
  16.193      30.920      55.262      84.242      71.154      84.154      84.171      71.199      50.852      30.944    
  17.177      10.676      8.4646      7.3101      7.3128      8.4667      10.665      17.143      30.891      50.794    
  39.592      50.740      55.168      50.826      39.697      26.578      16.216      10.678      8.5723      7.3245    
  6.8403      7.3125      8.5722      10.696      16.218      26.522      19.951      26.533      30.868      30.892    
  26.573      19.948      13.870      10.172      8.4673      7.3242      6.7131      6.6991      7.3088      8.4943    
  10.241      13.929      11.410      13.980      16.279      17.193      16.249      13.920      11.333      9.4515    
  8.2123      7.3081      6.8387      6.6981      6.8155      7.2926      8.2354      9.5146      8.7236      9.5744    
  10.346      10.816      10.789      10.290      9.5400      8.7384      7.9650      7.4744      7.3126      7.3123    
  7.3088      7.2944      7.4338      7.9191      7.7865      7.9822      8.3598      8.6599      8.7514      8.6382    
  8.3654      8.0488      7.8842      7.9807      8.2382      8.4710      8.5712      8.4960      8.2371      7.9171    
  8.7200      7.9837      7.5686      7.4886      7.5364      7.5379      7.5036      7.6091      8.0334      8.7387    
  9.4782      10.183      10.663      10.692      10.243      9.5126      11.406      9.5756      8.3651      7.4882    
  7.0612      6.9615      7.0804      7.4988      8.3395      9.5137      11.333      13.877      16.192      17.135    
  16.220      13.933      19.950      13.976      10.352      8.6607      7.5302      6.9604      6.9764      7.5491    
  8.6339      10.278      13.913      19.947      26.574      30.917      30.891      26.531      39.594      26.525    
  16.280      10.821      8.7456      7.5345      7.0868      7.5519      8.7517      10.804      16.275      26.576    
  39.696      50.883      55.260      50.798      71.157      50.737      30.864      17.199      10.789      8.6331    
  7.5095      7.5050      8.6280      10.800      17.236      30.920      50.794      71.198      84.251      84.236    
  108.21      84.160      55.164      30.893      16.254      10.286      8.3651      7.6148      8.3339      10.269    
  16.279      30.926      55.143      84.078      108.13      117.57      138.61      117.53      84.171      50.820    
  26.576      13.921      9.5349      8.0504      8.0335      9.5074      13.918      26.588      50.791      84.071    
  117.41      138.55      123.50      113.82      88.883      58.532      32.761      16.924      10.325      8.2736    
  7.5237      8.2768      10.329      16.924      32.759      58.529      88.882      113.82      113.85      113.81    
  96.519      69.152      41.806      22.120      12.163      8.8464      7.5488      7.5638      8.8723      12.170    
  22.112      41.823      69.219      96.605      88.934      96.590      88.881      69.156      45.378      25.586    
  13.908      9.3505      7.7282      7.0900      7.7483      9.3611      13.892      25.567      45.395      69.213    
  58.509      69.221      69.233      58.540      41.808      25.583      14.630      9.6977      7.9293      6.9216    
  6.9226      7.9288      9.6880      14.606      25.546      41.767      32.691      41.838      45.479      41.896    
  32.762      22.114      13.906      9.6992      8.0165      6.9216      6.5120      6.9092      8.0111      9.7087    
  13.907      22.077      16.923      22.210      25.733      25.749      22.235      16.918      12.162      9.3544    
  7.9316      6.9215      6.4040      6.3932      6.9084      7.9488      9.4032      12.205      10.381      12.362    
  14.167      14.894      14.148      12.322      10.328      8.8509      7.7292      6.9203      6.5110      6.3923    
  6.4969      6.9128      7.7483      8.8964      8.2635      9.0499      9.6859      10.058      10.041      9.6508    
  9.0306      8.2762      7.5464      7.0863      6.9227      6.9089      6.9083      6.9142      7.0620      7.5156    
  7.4498      7.6670      8.0371      8.3317      8.4269      8.3166      8.0418      7.7154      7.5202      7.5597    
  7.7508      7.9323      8.0101      7.9500      7.7498      7.5139      8.2604      7.6683      7.3563      7.3182    
  7.3718      7.3706      7.3235      7.3802      7.7022      8.2763      8.8750      9.3669      9.6860      9.7052    
  9.4050      8.8946      10.378      9.0511      8.0417      7.3179      6.9775      6.8989      6.9880      7.3208    
  8.0203      9.0067      10.328      12.171      13.890      14.599      13.908      12.208      16.923      12.359    
  9.6904      8.3324      7.3667      6.8979      6.9105      7.3828      8.3155      9.6385      12.313      16.918    
  22.113      25.564      25.546      22.084      32.693      22.203      14.167      10.062      8.4220      7.3677    
  6.9931      7.3850      8.4329      10.054      14.163      22.236      32.761      41.829      45.394      41.771    
  58.511      41.835      25.730      14.899      10.041      8.3124      7.3283      7.3260      8.3107      10.051    
  14.926      25.769      41.875      58.540      69.218      69.208      88.935      69.226      45.476      25.750    
  14.152      9.6477      8.0417      7.3848      8.0156      9.6310      14.167      25.774      45.464      69.171    
  88.881      96.595      113.85      96.599      69.233      41.891      22.238      12.323      9.0266      7.7166    
  7.7021      9.0015      12.317      22.245      41.873      69.166      96.514      113.81      88.861      81.913    
  63.992      42.216      23.993      13.279      9.1606      7.6367      7.0316      7.6389      9.1629      13.279    
  23.992      42.214      63.992      81.913      81.929      81.910      69.465      49.769      30.250      16.614    
  10.181      8.0582      6.9913      7.0025      8.0793      10.191      16.611      30.256      49.799      69.506    
  64.016      69.549      63.992      49.772      32.745      18.899      11.180      8.3707      7.0807      6.5788    
  7.0952      8.3816      11.174      18.888      32.750      49.796      42.206      49.928      49.934      42.222    
  30.251      18.897      11.603      8.5485      7.2029      6.4082      6.4074      7.1998      8.5411      11.590    
  18.878      30.231      23.963      30.456      33.057      30.482      23.993      16.609      11.178      8.5495    
  7.2583      6.3848      6.0758      6.3730      7.2482      8.5496      11.179      16.595      13.282      16.873    
  19.319      19.326      16.882      13.275      10.180      8.3733      7.2045      6.3849      5.9901      5.9834    
  6.3753      7.2105      8.3977      10.205      9.1871      10.482      11.668      12.154      11.661      10.465    
  9.1622      8.0614      7.0815      6.4076      6.0754      5.9827      6.0714      6.4086      7.0952      8.0857    
  7.6290      8.3392      8.8726      9.1510      9.1451      8.8620      8.3366      7.6387      6.9899      6.5765    
  6.4078      6.3727      6.3749      6.4096      6.5703      6.9766      6.9918      7.2176      7.5517      7.8165    
  7.9074      7.8092      7.5551      7.2440      7.0295      6.9998      7.0971      7.2022      7.2471      7.2114    
  7.0963      6.9753      7.6268      7.2187      7.0225      7.0182      7.0672      7.0632      7.0133      7.0278    
  7.2341      7.6387      8.0810      8.3855      8.5395      8.5470      8.3990      8.0842      9.1848      8.3403    
  7.5551      7.0180      6.7745      6.7171      6.7752      7.0132      7.5396      8.3169      9.1622      10.192    
  11.173      11.585      11.180      10.207      13.282      10.480      8.8760      7.8170      7.0634      6.7163    
  6.7245      7.0755      7.8115      8.8497      10.453      13.275      16.611      18.886      18.878      16.600    
  23.965      16.868      11.668      9.1536      7.9037      7.0610      6.7788      7.0771      7.9186      9.1550    
  11.665      16.879      23.993      30.260      32.749      30.234      42.207      30.454      19.317      12.158    
  9.1451      7.8062      7.0167      7.0167      7.8081      9.1525      12.172      19.337      30.474      42.222    
  49.799      49.793      64.017      49.931      33.054      19.327      11.664      8.8600      7.5551      7.0309    
  7.5361      8.8443      11.668      19.340      33.053      49.907      63.992      69.499      81.929      69.555    
  49.933      30.478      16.884      10.466      8.3340      7.2447      7.2337      8.3132      10.456      16.886    
  30.472      49.904      69.514      81.910      56.000      51.638      40.424      26.982      16.152      10.287    
  8.1382      6.9699      6.5311      6.9713      8.1397      10.288      16.151      26.981      40.424      51.638    
  51.639      51.636      43.819      31.545      19.696      11.915      8.5996      7.2217      6.4291      6.4363    
  7.2367      8.6103      11.916      19.693      31.546      43.824      40.427      43.913      40.425      31.547    
  21.137      13.084      8.9952      7.4144      6.4248      6.0717      6.4334      7.4239      8.9980      13.080    
  21.133      31.547      26.982      31.775      31.777      26.986      19.696      13.082      9.1648      7.5097    
  6.4616      5.8994      5.8976      6.4572      7.5049      9.1608      13.079      19.692      16.153      20.036    
  21.613      20.037      16.152      11.912      8.9940      7.5102      6.4822      5.8513      5.6427      5.8417    
  6.4705      7.5042      8.9947      11.915      10.292      12.304      13.715      13.714      12.301      10.284    
  8.5988      7.4158      6.4624      5.8516      5.5765      5.5733      5.8457      6.4604      7.4207      8.6077    
  8.1419      8.9784      9.6626      9.9408      9.6646      8.9793      8.1388      7.2235      6.4252      5.8996    
  5.6429      5.5729      5.6460      5.9059      6.4334      7.2306      6.9650      7.5657      8.0524      8.3109    
  8.3135      8.0594      7.5744      6.9713      6.4286      6.0708      5.8983      5.8414      5.8451      5.9064    
  6.0772      6.4286      6.5194      6.7440      7.0303      7.2556      7.3372      7.2545      7.0326      6.7523    
  6.5304      6.4349      6.4346      6.4585      6.4695      6.4608      6.4341      6.4278      6.9636      6.7447    
  6.6629      6.6927      6.7394      6.7343      6.6818      6.6555      6.7459      6.9711      7.2374      7.4261    
  7.5038      7.5026      7.4216      7.2295      8.1404      7.5666      7.0327      6.6926      6.5487      6.5147    
  6.5430      6.6833      7.0232      7.5603      8.1388      8.6106      8.9973      9.1578      8.9952      8.6088    
  10.292      8.9774      8.0548      7.2560      6.7371      6.5141      6.5183      6.7449      7.2587      8.0489    
  8.9676      10.285      11.916      13.079      13.079      11.918      16.154      12.301      9.6628      8.3124    
  7.3350      6.7329      6.5450      6.7458      7.3504      8.3198      9.6608      12.297      16.152      19.695    
  21.133      19.694      26.983      20.034      13.713      9.9427      8.3135      7.2528      6.6837      6.6852    
  7.2567      8.3183      9.9472      13.717      20.038      26.986      31.547      31.546      40.427      31.776    
  21.610      13.714      9.6665      8.0586      7.0327      6.6570      7.0210      8.0457      9.6626      13.719    
  21.616      31.777      40.425      43.820      51.639      43.916      31.775      20.035      12.303      8.9804    
  7.5732      6.7523      6.7452      7.5582      8.9697      12.301      20.037      31.775      43.911      51.636    
  31.222      28.882      22.954      16.107      10.994      8.4854      7.2253      6.3959      6.1136      6.3968    
  7.2263      8.4858      10.994      16.107      22.954      28.882      28.877      28.882      24.712      18.325    
  12.500      9.0360      7.4962      6.4828      5.9577      5.9613      6.4917      7.5049      9.0387      12.494    
  18.312      24.699      22.946      24.803      22.955      18.326      13.136      9.4411      7.6495      6.5583    
  5.8765      5.6540      5.8804      6.5649      7.6555      9.4419      13.128      18.314      16.112      18.571    
  18.570      16.109      12.500      9.4405      7.6973      6.5972      5.8453      5.4865      5.4846      5.8411    
  6.5946      7.6985      9.4447      12.504      11.009      12.885      13.660      12.873      10.994      9.0346    
  7.6489      6.5972      5.8383      5.4224      5.2939      5.4160      5.8286      6.5896      7.6492      9.0446    
  8.4897      9.4755      10.151      10.147      9.4671      8.4838      7.4957      6.5585      5.8454      5.4228    
  5.2427      5.2420      5.4199      5.8400      6.5532      7.4951      7.2178      7.9189      8.4086      8.5859    
  8.4143      7.9277      7.2254      6.4834      5.8766      5.4871      5.2946      5.2417      5.3002      5.4944    
  5.8804      6.4809      6.3936      6.8812      7.3015      7.5433      7.5492      7.3151      6.8931      6.3967    
  5.9577      5.6540      5.4854      5.4157      5.4192      5.4947      5.6649      5.9640      6.1178      6.3501    
  6.6099      6.8120      6.8885      6.8141      6.6112      6.3483      6.1139      5.9608      5.8810      5.8415    
  5.8277      5.8403      5.8809      5.9636      6.3926      6.3505      6.3881      6.4735      6.5383      6.5338    
  6.4625      6.3766      6.3450      6.3966      6.4915      6.5656      6.5940      6.5890      6.5538      6.4802    
  7.2168      6.8817      6.6113      6.4736      6.4391      6.4361      6.4317      6.4644      6.6068      6.8848    
  7.2254      7.5047      7.6552      7.6972      7.6495      7.4954      8.4895      7.9186      7.3030      6.8124    
  6.5372      6.4357      6.4371      6.5412      6.8183      7.3078      7.9187      8.4840      9.0387      9.4414    
  9.4448      9.0460      11.009      9.4743      8.4088      7.5440      6.8874      6.5331      6.4324      6.5415    
  6.8995      7.5523      8.4076      9.4632      10.994      12.495      13.129      12.506      16.113      12.883    
  10.150      8.5865      7.5492      6.8136      6.4632      6.4650      6.8173      7.5517      8.5855      10.146    
  12.879      16.109      18.313      18.314      22.946      18.571      13.658      10.147      8.4154      7.3152    
  6.6113      6.3768      6.6055      7.3064      8.4086      10.147      13.666      18.583      22.955      24.698    
  28.876      24.804      18.569      12.872      9.4683      7.9287      6.8928      6.3478      6.3442      6.8840    
  7.9200      9.4657      12.879      18.582      24.817      28.882      16.436      15.440      12.996      10.359    
  8.5377      7.3860      6.5038      5.9939      5.8353      5.9948      6.5047      7.3862      8.5372      10.358    
  12.996      15.440      15.434      15.441      13.689      11.130      8.9677      7.6258      6.6123      5.9385    
  5.6280      5.6294      5.9427      6.6179      7.6283      8.9620      11.115      13.673      12.986      13.763    
  12.997      11.130      9.1533      7.7476      6.6893      5.9161      5.4921      5.3636      5.4929      5.9195    
  6.6947      7.7500      9.1476      11.117      10.363      11.340      11.339      10.359      8.9674      7.7476    
  6.7159      5.9087      5.4193      5.2061      5.2045      5.4163      5.9075      6.7186      7.7534      8.9736    
  8.5524      9.3162      9.6236      9.3043      8.5371      7.6256      6.6892      5.9084      5.3966      5.1376    
  5.0617      5.1343      5.3905      5.9025      6.6891      7.6349      7.3890      8.0521      8.4258      8.4220    
  8.0445      7.3855      6.6123      5.9156      5.4189      5.1380      5.0216      5.0219      5.1371      5.4140    
  5.9082      6.6084      6.4951      7.0603      7.4786      7.6337      7.4836      7.0688      6.5038      5.9383    
  5.4918      5.2069      5.0625      5.0218      5.0672      5.2122      5.4929      5.9335      5.9935      6.3996    
  6.7597      6.9743      6.9794      6.7711      6.4087      5.9944      5.6281      5.3640      5.2054      5.1339    
  5.1364      5.2123      5.3732      5.6348      5.8436      6.1071      6.3774      6.5836      6.6621      6.5862    
  6.3782      6.1025      5.8360      5.6294      5.4932      5.4161      5.3897      5.4142      5.4935      5.6346    
  5.9927      6.1071      6.2692      6.4328      6.5349      6.5321      6.4254      6.2602      6.1014      5.9945    
  5.9421      5.9195      5.9073      5.9025      5.9088      5.9330      6.4942      6.3997      6.3783      6.4330    
  6.5098      6.5424      6.5042      6.4268      6.3768      6.4050      6.5038      6.6176      6.6948      6.7184    
  6.6893      6.6082      7.3887      7.0604      6.7607      6.5840      6.5345      6.5422      6.5422      6.5360    
  6.5889      6.7672      7.0635      7.3854      7.6284      7.7500      7.7534      7.6351      8.5528      8.0519    
  7.4788      6.9746      6.6618      6.5318      6.5043      6.5360      6.6689      6.9806      7.4782      8.0417    
  8.5369      8.9623      9.1479      8.9743      10.364      9.3157      8.4251      7.6336      6.9795      6.5863    
  6.4256      6.4267      6.5885      6.9804      7.6314      8.4198      9.3093      10.359      11.116      11.118    
  12.986      11.339      9.6224      8.4217      7.4842      6.7718      6.3783      6.2596      6.3761      6.7669    
  7.4786      8.4203      9.6292      11.352      12.997      13.674      15.434      13.762      11.338      9.3041    
  8.0453      7.0697      6.4088      6.1017      6.1005      6.4050      7.0643      8.0427      9.3096      11.352    
  13.778      15.441      9.9536      9.6591      8.9524      8.1565      7.3373      6.5939      6.0834      5.8235    
  5.7498      5.8244      6.0844      6.5941      7.3368      8.1559      8.9523      9.6592      9.6550      9.6596    
  9.1346      8.3554      7.5190      6.6793      6.0240      5.6338      5.4692      5.4698      5.6359      6.0273    
  6.6811      7.5158      8.3464      9.1243      8.9462      9.1895      8.9527      8.3550      7.5857      6.7405    
  6.0133      5.5281      5.2813      5.2097      5.2811      5.5295      6.0165      6.7424      7.5826      8.3475    
  8.1591      8.5212      8.5200      8.1558      7.5188      6.7409      6.0150      5.4850      5.1812      5.0541    
  5.0532      5.1793      5.4841      6.0166      6.7446      7.5231      7.3463      7.8210      7.9893      7.8136    
  7.3369      6.6800      6.0135      5.4845      5.1507      4.9858      4.9382      4.9844      5.1475      5.4809    
  6.0131      6.6853      6.5957      7.1010      7.3938      7.3915      7.0967      6.5941      6.0243      5.5272    
  5.1807      4.9862      4.9053      4.9057      4.9860      5.1778      5.5225      6.0215      6.0783      6.5359    
  6.8802      7.0090      6.8833      6.5410      6.0836      5.6333      5.2807      5.0549      4.9390      4.9055    
  4.9416      5.0578      5.2811      5.6303      5.8238      6.2166      6.5631      6.7686      6.7716      6.5698    
  6.2217      5.8239      5.4691      5.2102      5.0540      4.9840      4.9853      5.0579      5.2156      5.4734    
  5.7554      6.0980      6.4352      6.6844      6.7771      6.6861      6.4357      6.0951      5.7504      5.4697    
  5.2812      5.1790      5.1468      5.1781      5.2818      5.4734      5.8230      6.0978      6.4096      6.6824    
  6.8408      6.8392      6.6783      6.4045      6.0946      5.8240      5.6353      5.5293      5.4840      5.4813    
  5.5232      5.6301      6.0774      6.2164      6.4359      6.6827      6.8756      6.9468      6.8723      6.6791    
  6.4352      6.2199      6.0836      6.0273      6.0169      6.0169      6.0133      6.0211      6.5954      6.5360    
  6.5638      6.6849      6.8405      6.9466      6.9466      6.8413      6.6876      6.5677      6.5381      6.5939    
  6.6815      6.7425      6.7443      6.6850      7.3466      7.1013      6.8804      6.7686      6.7769      6.8390    
  6.8724      6.8413      6.7809      6.7722      6.8801      7.0950      7.3367      7.5157      7.5825      7.5232    
  8.1595      7.8210      7.3933      7.0086      6.7717      6.6864      6.6784      6.6789      6.6874      6.7722    
  7.0074      7.3901      7.8166      8.1557      8.3467      8.3482      8.9464      8.5205      7.9885      7.3911    
  6.8836      6.5706      6.4359      6.4039      6.4347      6.5677      6.8802      7.3902      7.9927      8.5284    
  8.9527      9.1252      9.6550      9.1885      8.5195      7.8138      7.0972      6.5416      6.2218      6.0942    
  6.0938      6.2201      6.5386      7.0952      7.8169      8.5285      9.1990      9.6596      7.9258      7.8170    
  7.5078      7.0644      6.6043      6.2458      6.0399      5.9575      5.9395      5.9580      6.0409      6.2470    
  6.6053      7.0647      7.5076      7.8168      7.8151      7.8174      7.5827      7.1521      6.6247      6.1343    
  5.7822      5.5892      5.5147      5.5158      5.5922      5.7859      6.1367      6.6237      7.1476      7.5774    
  7.5050      7.6333      7.5078      7.1517      6.6435      6.1084      5.6675      5.3810      5.2376      5.1969    
  5.2386      5.3826      5.6689      6.1082      6.6412      7.1480      7.0660      7.3152      7.3141      7.0635    
  6.6246      6.1089      5.6396      5.2983      5.0995      5.0142      5.0137      5.0981      5.2964      5.6382    
  6.1090      6.6266      6.6095      6.9560      7.0814      6.9517      6.6040      6.1353      5.6679      5.2979    
  5.0602      4.9386      4.9021      4.9372      5.0576      5.2952      5.6674      6.1384      6.2480      6.6606    
  6.9026      6.9017      6.6586      6.2463      5.7827      5.3801      5.0989      4.9389      4.8706      4.8704    
  4.9382      5.0979      5.3795      5.7832      6.0382      6.4950      6.8373      6.9652      6.8402      6.4987    
  6.0404      5.5887      5.2369      5.0148      4.9028      4.8702      4.9037      5.0165      5.2386      5.5890    
  5.9569      6.4502      6.8786      7.1276      7.1299      6.8837      6.4545      5.9579      5.5143      5.1972    
  5.0145      4.9367      4.9374      5.0166      5.2001      5.5163      5.9403      6.4590      6.9593      7.3167    
  7.4455      7.3171      6.9597      6.4589      5.9397      5.5155      5.2388      5.0978      5.0568      5.0982    
  5.2395      5.5163      5.9560      6.4588      6.9984      7.4418      7.6857      7.6835      7.4369      6.9940    
  6.4574      5.9575      5.5918      5.3827      5.2963      5.2955      5.3805      5.5890      6.0373      6.4499    
  6.9600      7.4420      7.7746      7.8899      7.7712      7.4378      6.9578      6.4509      6.0404      5.7862    
  5.6695      5.6384      5.6675      5.7830      6.2478      6.4951      6.8794      7.3170      7.6852      7.8897    
  7.8905      7.6870      7.3190      6.8806      6.4953      6.2472      6.1373      6.1082      6.1085      6.1380    
  6.6100      6.6611      6.8375      7.1275      7.4449      7.6832      7.7716      7.6872      7.4503      7.1311    
  6.8372      6.6576      6.6054      6.6234      6.6405      6.6264      7.0665      6.9563      6.9022      6.9646    
  7.1297      7.3173      7.4374      7.4381      7.3188      7.1309      6.9645      6.9006      6.9539      7.0644    
  7.1474      7.1483      7.5051      7.3149      7.0809      6.9014      6.8405      6.8844      6.9600      6.9938    
  6.9574      6.8805      6.8373      6.9006      7.0830      7.3184      7.5078      7.5779      7.8150      7.6326    
  7.3139      6.9521      6.6591      6.4991      6.4545      6.4582      6.4569      6.4511      6.4956      6.6575    
  6.9540      7.3185      7.6375      7.8170      6.9672      6.9047      6.7436      6.5571      6.4253      6.3866    
  6.4191      6.4683      6.4894      6.4677      6.4197      6.3897      6.4294      6.5596      6.7435      6.9036    
  6.9028      6.9049      6.7591      6.5120      6.2411      6.0207      5.8864      5.8282      5.8132      5.8158    
  5.8348      5.8937      6.0251      6.2409      6.5079      6.7544      6.7417      6.8282      6.7434      6.5115    
  6.1965      5.8786      5.6222      5.4547      5.3693      5.3459      5.3732      5.4589      5.6230      5.8755    
  6.1918      6.5078      6.5600      6.7436      6.7416      6.5562      6.2409      5.8790      5.5506      5.3048    
  5.1529      5.0835      5.0834      5.1515      5.3007      5.5451      5.8757      6.2421      6.4322      6.7341    
  6.8436      6.7286      6.4250      6.0216      5.6226      5.3045      5.0938      4.9802      4.9440      4.9772    
  5.0890      5.3003      5.6221      6.0259      6.3909      6.8337      7.0939      7.0935      6.8320      6.3872    
  5.8871      5.4541      5.1524      4.9805      4.9059      4.9047      4.9784      5.1523      5.4571      5.8917    
  6.4179      7.0082      7.4454      7.6083      7.4512      7.0146      6.4196      5.8280      5.3687      5.0841    
  4.9446      4.9044      4.9450      5.0865      5.3732      5.8313      6.4650      7.1838      7.7917      8.1364    
  8.1400      7.8002      7.1918      6.4685      5.8128      5.3461      5.0841      4.9766      4.9775      5.0866    
  5.3491      5.8139      6.4865      7.2907      8.0349      8.5679      8.7721      8.5671      8.0351      7.2928    
  6.4894      5.8155      5.3734      5.1512      5.0881      5.1525      5.3741      5.8140      6.4643      7.2906    