unknown system                          
   1.00000000000000     
     2.330000    0.000000    0.000000
    -1.165000    2.017839    0.000000
     0.000000    0.000000    4.100000
   Fe
     2
Direct
  0.000000  0.000000  0.000000
  0.333333  0.666667  0.500000
 
   16   16   32
 0.16059029642E+03 0.14792352712E+03 0.11541120843E+03 0.75970308900E+02 0.42334331609E+02
 0.21132869277E+02 0.11731344693E+02 0.89043539974E+01 0.80238592331E+01 0.89085009256E+01
 0.11735430396E+02 0.21133058133E+02 0.42331038896E+02 0.75967113329E+02 0.11541050783E+03
 0.14792428962E+03 0.14798173522E+03 0.14791727351E+03 0.12536818141E+03 0.89817069042E+02
 0.54274488449E+02 0.28302708396E+02 0.14548435359E+02 0.96781913551E+01 0.81251729942E+01
 0.81437700690E+01 0.97078408795E+01 0.14549922907E+02 0.28288133320E+02 0.54305778011E+02
 0.89929283621E+02 0.12550855797E+03 0.11549623509E+03 0.12543188641E+03 0.11540923260E+03
 0.89822276020E+02 0.58964139241E+02 0.32997516977E+02 0.17126315588E+02 0.10491214486E+02
 0.83909359419E+01 0.76257258820E+01 0.84165525312E+01 0.10500036479E+02 0.17096158719E+02
 0.32967742900E+02 0.58995368278E+02 0.89917910795E+02 0.75931508650E+02 0.89793676620E+02
 0.89812127964E+02 0.75981061617E+02 0.54277482461E+02 0.32993803065E+02 0.18171998317E+02
 0.11065844877E+02 0.86619793778E+01 0.74556066253E+01 0.74590096455E+01 0.86651875124E+01
 0.11053851247E+02 0.18134578766E+02 0.32934529151E+02 0.54212727729E+02 0.42216657459E+02
 0.54112181504E+02 0.58834126848E+02 0.54209327666E+02 0.42335452897E+02 0.28294558785E+02
 0.17122972572E+02 0.11067833952E+02 0.87765346048E+01 0.74744978921E+01 0.69626913154E+01
 0.74628447722E+01 0.87786445859E+01 0.11089455926E+02 0.17124812896E+02 0.28230687718E+02
 0.21128089654E+02 0.28193950468E+02 0.32830726020E+02 0.32858069491E+02 0.28239596394E+02
 0.21126495727E+02 0.14546993959E+02 0.10496322548E+02 0.86648782371E+01 0.74741706708E+01
 0.68278395412E+01 0.68126538794E+01 0.74578762927E+01 0.86958237119E+01 0.10573823387E+02
 0.14612336988E+02 0.11821157656E+02 0.14620528606E+02 0.17106450091E+02 0.18089920345E+02
 0.17071831284E+02 0.14552325498E+02 0.11735164136E+02 0.96839700623E+01 0.83920766591E+01
 0.74534387692E+01 0.69609359791E+01 0.68116332425E+01 0.69340371381E+01 0.74346427855E+01
 0.84165525312E+01 0.97540486628E+01 0.88919841996E+01 0.97739007508E+01 0.10604664924E+02
 0.11113576762E+02 0.11081949126E+02 0.10539303072E+02 0.97334719488E+01 0.89075389749E+01
 0.81216314102E+01 0.76205562341E+01 0.74587176761E+01 0.74626224243E+01 0.74579811661E+01
 0.74365186723E+01 0.75734241798E+01 0.80698077406E+01 0.79106426023E+01 0.80940278326E+01
 0.84687236601E+01 0.87660011363E+01 0.88541521380E+01 0.87416483410E+01 0.84746508465E+01
 0.81678331220E+01 0.80189582884E+01 0.81381481362E+01 0.84195660296E+01 0.86698467166E+01
 0.87776994116E+01 0.86975840569E+01 0.84184253125E+01 0.80677273918E+01 0.88880888018E+01
 0.80955811249E+01 0.76368473002E+01 0.75355838200E+01 0.75777914976E+01 0.75804609910E+01
 0.75545049494E+01 0.76840181993E+01 0.81515679264E+01 0.89077905054E+01 0.97114730770E+01
 0.10507619264E+02 0.11051568756E+02 0.11085184360E+02 0.10576298110E+02 0.97519021532E+01
 0.11817071954E+02 0.97751078696E+01 0.84742778451E+01 0.75351889655E+01 0.70707977848E+01
 0.69613562774E+01 0.70935920401E+01 0.75488202922E+01 0.84471614761E+01 0.97063746844E+01
 0.11735164136E+02 0.14552606017E+02 0.17094318395E+02 0.18125813099E+02 0.17126315588E+02
 0.14616461500E+02 0.21127293549E+02 0.14616188968E+02 0.10610060638E+02 0.87668659125E+01
 0.75712426970E+01 0.69601857096E+01 0.69775125436E+01 0.75911504588E+01 0.87360726132E+01
 0.10528362073E+02 0.14546663406E+02 0.21125888479E+02 0.28288983057E+02 0.32963774113E+02
 0.32934274276E+02 0.28239687066E+02 0.42219020636E+02 0.28185697389E+02 0.17106637479E+02
 0.11118404393E+02 0.88480036196E+01 0.75768184248E+01 0.71003814975E+01 0.75940566932E+01
 0.88520577959E+01 0.11098465852E+02 0.17101414997E+02 0.28244564873E+02 0.42334523361E+02
 0.54313087140E+02 0.58993722953E+02 0.54217042846E+02 0.75934096973E+02 0.54108628743E+02
 0.32826595577E+02 0.18096522336E+02 0.11082192466E+02 0.87362297130E+01 0.75608203545E+01
 0.75555305518E+01 0.87297892090E+01 0.11093881561E+02 0.18137370091E+02 0.32889312939E+02
 0.54173115738E+02 0.75980454369E+02 0.89927306376E+02 0.89910726572E+02 0.11549693569E+03
 0.89800684552E+02 0.58830735888E+02 0.32859859359E+02 0.17077053767E+02 0.10535009201E+02
 0.84742778451E+01 0.76900578137E+01 0.84412342896E+01 0.10518672489E+02 0.17106450091E+02
 0.32895233250E+02 0.58805472671E+02 0.89707047576E+02 0.11540923260E+03 0.12549510273E+03
 0.14798122425E+03 0.12544444110E+03 0.89812463129E+02 0.54202537803E+02 0.28243394522E+02
 0.14552916108E+02 0.97279912751E+01 0.81695434534E+01 0.81517249654E+01 0.96996868918E+01
 0.14551593654E+02 0.28256616080E+02 0.54169878637E+02 0.89700374808E+02 0.12530537085E+03
 0.14791752504E+03 0.15039443985E+03 0.13855476626E+03 0.10813494023E+03 0.71188811607E+02
 0.39696026243E+02 0.19954136813E+02 0.11329658036E+02 0.87354232200E+01 0.78886757134E+01
 0.87393081366E+01 0.11333483932E+02 0.19954309580E+02 0.39692936653E+02 0.71185815125E+02
 0.10813428413E+03 0.13855548192E+03 0.13860655641E+03 0.13854893645E+03 0.11745245428E+03
 0.84152819398E+02 0.50849122030E+02 0.26585961811E+02 0.13871215887E+02 0.94460344805E+01
 0.79682163791E+01 0.79858713292E+01 0.94747785603E+01 0.13874280659E+02 0.26573192283E+02
 0.50876317515E+02 0.84252368245E+02 0.11757768243E+03 0.10821056104E+03 0.11751747195E+03
 0.10813318990E+03 0.84157724223E+02 0.55234868271E+02 0.30947328810E+02 0.16219559973E+02
 0.10166849991E+02 0.82112323294E+01 0.74791724422E+01 0.82353821634E+01 0.10176280607E+02
 0.16193386202E+02 0.30920428247E+02 0.55261915808E+02 0.84242421134E+02 0.71154449697E+02
 0.84153973553E+02 0.84170578170E+02 0.71198947926E+02 0.50851859278E+02 0.30943800575E+02
 0.17176720777E+02 0.10676202723E+02 0.84645859740E+01 0.73100856624E+01 0.73127794286E+01
 0.84666781626E+01 0.10664811459E+02 0.17142990659E+02 0.30890772074E+02 0.50793877597E+02
 0.39591885102E+02 0.50740132529E+02 0.55167647293E+02 0.50826324330E+02 0.39696972027E+02
 0.26578201521E+02 0.16216396461E+02 0.10678061843E+02 0.85723287433E+01 0.73244890486E+01
 0.68402594460E+01 0.73124960183E+01 0.85721747262E+01 0.10696176887E+02 0.16218160847E+02
 0.26522117793E+02 0.19950594020E+02 0.26532653474E+02 0.30867692281E+02 0.30891790323E+02
 0.26572534172E+02 0.19948017227E+02 0.13869808155E+02 0.10171633111E+02 0.84673143163E+01
 0.73242242352E+01 0.67130749905E+01 0.66990990526E+01 0.73087804583E+01 0.84943280305E+01
 0.10241017768E+02 0.13929070709E+02 0.11409760838E+02 0.13980290324E+02 0.16279371158E+02
 0.17193043384E+02 0.16249024471E+02 0.13920060193E+02 0.11333167573E+02 0.94514652740E+01
 0.82123413206E+01 0.73081494170E+01 0.68386905363E+01 0.66981284446E+01 0.68154848006E+01
 0.72926449865E+01 0.82353821633E+01 0.95146220641E+01 0.87236299402E+01 0.95743741723E+01
 0.10346475910E+02 0.10816278752E+02 0.10788687346E+02 0.10289731720E+02 0.95400191906E+01
 0.87384424223E+01 0.79649732782E+01 0.74744164427E+01 0.73125966275E+01 0.73122615989E+01
 0.73088108523E+01 0.72943984309E+01 0.74338290377E+01 0.79191186432E+01 0.77864951254E+01
 0.79821662983E+01 0.83597830037E+01 0.86599063934E+01 0.87514391007E+01 0.86381541479E+01
 0.83653740335E+01 0.80488451633E+01 0.78841746608E+01 0.79806514746E+01 0.82382450030E+01
 0.84710298764E+01 0.85711997064E+01 0.84959514020E+01 0.82371360118E+01 0.79171418895E+01
 0.87199679782E+01 0.79836638253E+01 0.75686281618E+01 0.74886011016E+01 0.75364132130E+01
 0.75379356029E+01 0.75035569630E+01 0.76091253539E+01 0.80333899215E+01 0.87386653769E+01
 0.94781515017E+01 0.10183372793E+02 0.10662606601E+02 0.10692112909E+02 0.10243326834E+02
 0.95125642121E+01 0.11405934942E+02 0.95755931296E+01 0.83650587377E+01 0.74882267221E+01
 0.70611923731E+01 0.69615146622E+01 0.70804331989E+01 0.74987500987E+01 0.83394703512E+01
 0.95136926167E+01 0.11333167573E+02 0.13876740973E+02 0.16191621816E+02 0.17134706972E+02
 0.16219559973E+02 0.13932938754E+02 0.19949882993E+02 0.13976277810E+02 0.10351610257E+02
 0.86607075384E+01 0.75302260098E+01 0.69603970517E+01 0.69764168596E+01 0.75491370249E+01
 0.86339003280E+01 0.10278307344E+02 0.13913083027E+02 0.19947478967E+02 0.26573947701E+02
 0.30916688967E+02 0.30890561029E+02 0.26530633501E+02 0.39594150759E+02 0.26524888333E+02
 0.16279555250E+02 0.10820792684E+02 0.87456143439E+01 0.75344798297E+01 0.70867909510E+01
 0.75518684549E+01 0.87517442051E+01 0.10804365542E+02 0.16274623049E+02 0.26576249732E+02
 0.39696148095E+02 0.50883224706E+02 0.55260466849E+02 0.50798047540E+02 0.71156907919E+02
 0.50736699666E+02 0.30863728489E+02 0.17199212519E+02 0.10788888997E+02 0.86330576706E+01
 0.75094820323E+01 0.75050495475E+01 0.86280027057E+01 0.10800053261E+02 0.17236178058E+02
 0.30919978450E+02 0.50794420642E+02 0.71198409666E+02 0.84250649512E+02 0.84235797575E+02
 0.10821121714E+03 0.84160420084E+02 0.55164305985E+02 0.30893429011E+02 0.16253956672E+02
 0.10285752228E+02 0.83650587377E+01 0.76147771290E+01 0.83338793213E+01 0.10269193505E+02
 0.16279371158E+02 0.30925580930E+02 0.55142872647E+02 0.84077608533E+02 0.10813318990E+03
 0.11756513298E+03 0.13860606370E+03 0.11752914995E+03 0.84170726849E+02 0.50819900798E+02
 0.26576185778E+02 0.13920726546E+02 0.95349440630E+01 0.80504165113E+01 0.80334637424E+01
 0.95073985317E+01 0.13917761894E+02 0.26587666478E+02 0.50791429973E+02 0.84071310681E+02
 0.11740515290E+03 0.13854915941E+03 0.12350204151E+03 0.11381930707E+03 0.88882540947E+02
 0.58531861987E+02 0.32761064286E+02 0.16923543189E+02 0.10325377663E+02 0.82736268791E+01
 0.75236703087E+01 0.82767975671E+01 0.10328518776E+02 0.16923730608E+02 0.32758597428E+02
 0.58529447338E+02 0.88882002180E+02 0.11381987569E+03 0.11385480860E+03 0.11381462568E+03
 0.96518763075E+02 0.69151842365E+02 0.41806007973E+02 0.22120296448E+02 0.12162885748E+02
 0.88464373791E+01 0.75488279350E+01 0.75638362328E+01 0.88723433083E+01 0.12169567895E+02
 0.22112084645E+02 0.41822970793E+02 0.69219301426E+02 0.96605445918E+02 0.88934308016E+02
 0.96590157749E+02 0.88881382249E+02 0.69155917408E+02 0.45378025718E+02 0.25586229356E+02
 0.13908189264E+02 0.93505347063E+01 0.77282157766E+01 0.70899852418E+01 0.77483277709E+01
 0.93611267080E+01 0.13891928181E+02 0.25566655981E+02 0.45394578407E+02 0.69212915092E+02
 0.58508738724E+02 0.69221280964E+02 0.69233144763E+02 0.58540304111E+02 0.41808064525E+02
 0.25583222874E+02 0.14630222688E+02 0.96977156223E+01 0.79293164892E+01 0.69215953057E+01
 0.69225810626E+01 0.79287726747E+01 0.96880019411E+01 0.14605894723E+02 0.25546045353E+02
 0.41767329270E+02 0.32691155627E+02 0.41838038104E+02 0.45478973313E+02 0.41896450461E+02
 0.32761557973E+02 0.22113635133E+02 0.13905524483E+02 0.96992160594E+01 0.80165157875E+01
 0.69215875608E+01 0.65120275482E+01 0.69091530954E+01 0.80111359995E+01 0.97087105554E+01
 0.13907064146E+02 0.22077151737E+02 0.16923007800E+02 0.22209607191E+02 0.25732995284E+02
 0.25748903100E+02 0.22235000180E+02 0.16918155221E+02 0.12161587651E+02 0.93544220843E+01
 0.79315675470E+01 0.69214849213E+01 0.64039745422E+01 0.63931774396E+01 0.69084302877E+01
 0.79487584813E+01 0.94031687582E+01 0.12205223610E+02 0.10380824612E+02 0.12362486500E+02
 0.14167126547E+02 0.14893837299E+02 0.14147542744E+02 0.12322392108E+02 0.10328065131E+02
 0.88509118256E+01 0.77292167359E+01 0.69202703329E+01 0.65109562266E+01 0.63923455475E+01
 0.64968915829E+01 0.69127786353E+01 0.77483277709E+01 0.88963700294E+01 0.82634804698E+01
 0.90499079378E+01 0.96859421075E+01 0.10058447897E+02 0.10040993434E+02 0.96507835402E+01
 0.90306218240E+01 0.82761946133E+01 0.75463750030E+01 0.70863330046E+01 0.69226812432E+01
 0.69088906316E+01 0.69082704634E+01 0.69142037888E+01 0.70619830966E+01 0.75155862274E+01
 0.74498123980E+01 0.76670003775E+01 0.80371442058E+01 0.83317126628E+01 0.84269342103E+01
 0.83165798606E+01 0.80418248732E+01 0.77153993975E+01 0.75202428567E+01 0.75596921003E+01
 0.77507688106E+01 0.79322903548E+01 0.80100996781E+01 0.79500251036E+01 0.77497678514E+01
 0.75138950269E+01 0.82604401642E+01 0.76683320117E+01 0.73562826750E+01 0.73181739250E+01
 0.73718476258E+01 0.73706352878E+01 0.73234650518E+01 0.73801761999E+01 0.77022126826E+01
 0.82763249957E+01 0.88750047275E+01 0.93668859915E+01 0.96860293445E+01 0.97052375218E+01
 0.94050406638E+01 0.88945570021E+01 0.10377683499E+02 0.90511287084E+01 0.80416527745E+01
 0.73178625140E+01 0.69775289253E+01 0.68988997980E+01 0.69879665707E+01 0.73208438182E+01
 0.80202727985E+01 0.90067392455E+01 0.10328065131E+02 0.12171430324E+02 0.13890388517E+02
 0.14598948592E+02 0.13908189264E+02 0.12208384137E+02 0.16922505610E+02 0.12359342238E+02
 0.96903551673E+01 0.83323567501E+01 0.73666621392E+01 0.68979311200E+01 0.69105028580E+01
 0.73827844239E+01 0.83155422817E+01 0.96385040217E+01 0.12312523500E+02 0.16917840450E+02
 0.22112597554E+02 0.25563551838E+02 0.25545947692E+02 0.22084325961E+02 0.32693140654E+02
 0.22203171687E+02 0.14167302614E+02 0.10062122682E+02 0.84220155416E+01 0.73676997181E+01
 0.69931467213E+01 0.73850343407E+01 0.84328684890E+01 0.10054310531E+02 0.14163160540E+02
 0.22235722988E+02 0.32761076142E+02 0.41828773139E+02 0.45393643514E+02 0.41771075065E+02
 0.58510838602E+02 0.41834952358E+02 0.25729503366E+02 0.14898837759E+02 0.10041099296E+02
 0.83123709434E+01 0.73283204182E+01 0.73260105955E+01 0.83106892773E+01 0.10050741609E+02
 0.14925766872E+02 0.25769203678E+02 0.41875427075E+02 0.58539989340E+02 0.69218260036E+02
 0.69207798659E+02 0.88934846783E+02 0.69226223732E+02 0.45475799508E+02 0.25750139929E+02
 0.14151684818E+02 0.96476576402E+01 0.80416527745E+01 0.73847559085E+01 0.80155921310E+01
 0.96309650618E+01 0.14167126547E+02 0.25773932424E+02 0.45463837348E+02 0.69170776201E+02
 0.88881382249E+02 0.96595355931E+02 0.11385437036E+03 0.96599465550E+02 0.69232820390E+02
 0.41891039034E+02 0.22238234978E+02 0.12323241368E+02 0.90266308990E+01 0.77165820171E+01
 0.77020636680E+01 0.90015275499E+01 0.12316517023E+02 0.22245393289E+02 0.41873101394E+02
 0.69165509059E+02 0.96513775216E+02 0.11381475606E+03 0.88860534277E+02 0.81912901424E+02
 0.63992304685E+02 0.42215600155E+02 0.23993399724E+02 0.13279188253E+02 0.91605893303E+01
 0.76367184579E+01 0.70315538372E+01 0.76389406654E+01 0.91628625075E+01 0.13279498604E+02
 0.23991881930E+02 0.42214027391E+02 0.63991914736E+02 0.81913240517E+02 0.81929300390E+02
 0.81909769912E+02 0.69464963008E+02 0.49768859306E+02 0.30250163278E+02 0.16613618492E+02
 0.10181473998E+02 0.80582252764E+01 0.69913310184E+01 0.70025405289E+01 0.80793328585E+01
 0.10191345187E+02 0.16610674240E+02 0.30255539993E+02 0.49798819087E+02 0.69506159182E+02
 0.64016131762E+02 0.69548898923E+02 0.63991886017E+02 0.49771781235E+02 0.32745187088E+02
 0.18899153457E+02 0.11179630409E+02 0.83706600073E+01 0.70807431371E+01 0.65787503986E+01
 0.70952483564E+01 0.83815733124E+01 0.11174499579E+02 0.18888327075E+02 0.32749796784E+02
 0.49796469724E+02 0.42205567894E+02 0.49928048251E+02 0.49934211554E+02 0.42221684061E+02
 0.30251345302E+02 0.18896906102E+02 0.11603106636E+02 0.85484770545E+01 0.72028993955E+01
 0.64081690480E+01 0.64073859715E+01 0.71997722445E+01 0.85411413912E+01 0.11589958096E+02
 0.18878377336E+02 0.30231020623E+02 0.23963308616E+02 0.30456325058E+02 0.33057161630E+02
 0.30482241485E+02 0.23993350745E+02 0.16608569748E+02 0.11177674549E+02 0.85494740507E+01
 0.72583071088E+01 0.63848201991E+01 0.60757899476E+01 0.63729859900E+01 0.72481802436E+01
 0.85496008885E+01 0.11178855867E+02 0.16594614368E+02 0.13281799793E+02 0.16872712801E+02
 0.19319356735E+02 0.19325790889E+02 0.16881527240E+02 0.13274914159E+02 0.10180378593E+02
 0.83732939220E+01 0.72044629159E+01 0.63849172365E+01 0.59901227584E+01 0.59833507643E+01
 0.63752871790E+01 0.72105329308E+01 0.83976813596E+01 0.10205103871E+02 0.91870795336E+01
 0.10482231202E+02 0.11668048553E+02 0.12154076498E+02 0.11660839383E+02 0.10465458101E+02
 0.91622212231E+01 0.80613702152E+01 0.70815341115E+01 0.64076232541E+01 0.60753685552E+01
 0.59827141552E+01 0.60714336596E+01 0.64086362663E+01 0.70952483564E+01 0.80856829391E+01
 0.76290219433E+01 0.83391853150E+01 0.88726412804E+01 0.91509838209E+01 0.91451025236E+01
 0.88619677766E+01 0.83365863761E+01 0.76386709710E+01 0.69898881074E+01 0.65765383605E+01
 0.64078321841E+01 0.63726973255E+01 0.63749014770E+01 0.64096282727E+01 0.65702598844E+01
 0.69765619341E+01 0.69917875259E+01 0.72176251018E+01 0.75516821731E+01 0.78165202964E+01
 0.79073551587E+01 0.78092061101E+01 0.75551360826E+01 0.72440437650E+01 0.70295429972E+01
 0.69998068294E+01 0.70970833967E+01 0.72021617269E+01 0.72471141117E+01 0.72113588928E+01
 0.70962924222E+01 0.69752711456E+01 0.76267876036E+01 0.72186898797E+01 0.70224783273E+01
 0.70182420411E+01 0.70671535582E+01 0.70632428533E+01 0.70133427030E+01 0.70278479797E+01
 0.72341129107E+01 0.76386588387E+01 0.80810108617E+01 0.83855259653E+01 0.85395431964E+01
 0.85470056975E+01 0.83990000978E+01 0.80842160035E+01 0.91848063564E+01 0.83403210300E+01
 0.75551219307E+01 0.70180372263E+01 0.67744823802E+01 0.67170819894E+01 0.67752202333E+01
 0.70131533439E+01 0.75395867974E+01 0.83169261588E+01 0.91622212231E+01 0.10192421277E+02
 0.11173318262E+02 0.11584905643E+02 0.11179630409E+02 0.10207275366E+02 0.13281518732E+02
 0.10480207596E+02 0.88760461679E+01 0.78169960853E+01 0.70633772710E+01 0.67163284478E+01
 0.67244930058E+01 0.70755041864E+01 0.78115365889E+01 0.88497185757E+01 0.10453417830E+02
 0.13274943449E+02 0.16610900227E+02 0.18886116126E+02 0.18878413742E+02 0.16599889099E+02
 0.23964871245E+02 0.16868096257E+02 0.11668216720E+02 0.91535552260E+01 0.79037352956E+01
 0.70610467922E+01 0.67787938333E+01 0.70770844125E+01 0.79185929907E+01 0.91550212457E+01
 0.11665150836E+02 0.16879226051E+02 0.23993395580E+02 0.30259804799E+02 0.32749498541E+02
 0.30234103405E+02 0.42207169948E+02 0.30453775248E+02 0.19316558751E+02 0.12157508801E+02
 0.91451250186E+01 0.78062353990E+01 0.70167259385E+01 0.70167413942E+01 0.78080900890E+01
 0.91524723355E+01 0.12172216498E+02 0.19336522285E+02 0.30473811278E+02 0.42221713351E+02
 0.49798620679E+02 0.49793349386E+02 0.64016521711E+02 0.49931014183E+02 0.33054308707E+02
 0.19326506077E+02 0.11663905267E+02 0.88599991137E+01 0.75551219307E+01 0.70309250061E+01
 0.75361328879E+01 0.88443450252E+01 0.11668048553E+02 0.19340035457E+02 0.33052805342E+02
 0.49907374524E+02 0.63991886017E+02 0.69499400414E+02 0.81928949165E+02 0.69555024175E+02
 0.49933343975E+02 0.30478253196E+02 0.16884143998E+02 0.10466490334E+02 0.83340147847E+01
 0.72446684744E+01 0.72336728422E+01 0.83132188525E+01 0.10456473669E+02 0.16886459353E+02
 0.30472372798E+02 0.49903541013E+02 0.69514441946E+02 0.81909757780E+02 0.55999893997E+02
 0.51637868059E+02 0.40424486944E+02 0.26982058894E+02 0.16152107540E+02 0.10287332095E+02
 0.81381605366E+01 0.69699327504E+01 0.65310987714E+01 0.69713000199E+01 0.81396648615E+01
 0.10287786938E+02 0.16151484998E+02 0.26981267637E+02 0.40424229018E+02 0.51637989229E+02
 0.51639349731E+02 0.51636282975E+02 0.43818501492E+02 0.31545298720E+02 0.19695697140E+02
 0.11915336025E+02 0.85996279990E+01 0.72217445687E+01 0.64291475509E+01 0.64362676971E+01
 0.72367250808E+01 0.86102688189E+01 0.11916344757E+02 0.19692652483E+02 0.31546153792E+02
 0.43823696256E+02 0.40426509761E+02 0.43913038198E+02 0.40424699487E+02 0.31547008739E+02
 0.21137082798E+02 0.13083732741E+02 0.89951756064E+01 0.74144482331E+01 0.64247656166E+01
 0.60716566286E+01 0.64334423341E+01 0.74239304726E+01 0.89980406621E+01 0.13080152637E+02
 0.21133081410E+02 0.31546780360E+02 0.26982051388E+02 0.31775036341E+02 0.31776541262E+02
 0.26985658417E+02 0.19696083482E+02 0.13082340494E+02 0.91648305528E+01 0.75097334088E+01
 0.64616210489E+01 0.58994081184E+01 0.58975778136E+01 0.64572284725E+01 0.75049401111E+01
 0.91607996240E+01 0.13078634950E+02 0.19692075732E+02 0.16152526719E+02 0.20036261717E+02
 0.21612637698E+02 0.20036995270E+02 0.16151631169E+02 0.11912124509E+02 0.89939895235E+01
 0.75101936773E+01 0.64822252461E+01 0.58513465239E+01 0.56426994235E+01 0.58417159067E+01
 0.64705384473E+01 0.75041563595E+01 0.89947181991E+01 0.11914984255E+02 0.10291726375E+02
 0.12304189402E+02 0.13714616025E+02 0.13713872540E+02 0.12300767115E+02 0.10284388910E+02
 0.85988335310E+01 0.74157537448E+01 0.64624262208E+01 0.58516125838E+01 0.55764719718E+01
 0.55733303296E+01 0.58456553437E+01 0.64603841579E+01 0.74207249704E+01 0.86076898840E+01
 0.81419456038E+01 0.89784202203E+01 0.96625990969E+01 0.99407820090E+01 0.96645677268E+01
 0.89793248564E+01 0.81388395027E+01 0.72234978720E+01 0.64252361660E+01 0.58995658858E+01
 0.56428904494E+01 0.55728991404E+01 0.56460218865E+01 0.59058738337E+01 0.64334423341E+01
 0.72305733146E+01 0.69650420237E+01 0.75656727601E+01 0.80524181577E+01 0.83109250142E+01
 0.83135128550E+01 0.80593958222E+01 0.75744054910E+01 0.69712626190E+01 0.64286085761E+01
 0.60707975039E+01 0.58983116137E+01 0.58414151505E+01 0.58450885276E+01 0.59064498663E+01
 0.60771806900E+01 0.64286491986E+01 0.65194368789E+01 0.67439896980E+01 0.70303454032E+01
 0.72555739660E+01 0.73372443805E+01 0.72544696265E+01 0.70325783088E+01 0.67523153957E+01
 0.65304357011E+01 0.64348665724E+01 0.64346173162E+01 0.64584867838E+01 0.64695216329E+01
 0.64608372973E+01 0.64341467668E+01 0.64277870487E+01 0.69635515017E+01 0.67447141826E+01
 0.66629491359E+01 0.66927043834E+01 0.67393977998E+01 0.67342739194E+01 0.66818419251E+01
 0.66554807335E+01 0.67459341470E+01 0.69711393665E+01 0.72373913892E+01 0.74260744306E+01
 0.75038124286E+01 0.75025684084E+01 0.74215634167E+01 0.72294863197E+01 0.81404412790E+01
 0.75665744407E+01 0.70326703667E+01 0.66926424383E+01 0.65487289932E+01 0.65146562144E+01
 0.65429939412E+01 0.66832950190E+01 0.70231971586E+01 0.75603131520E+01 0.81388395027E+01
 0.86106073108E+01 0.89973119865E+01 0.91577799617E+01 0.89951756064E+01 0.86088228439E+01
 0.10291569090E+02 0.89774324369E+01 0.80547663135E+01 0.72559532446E+01 0.67371071792E+01
 0.65141367614E+01 0.65182535623E+01 0.67448921630E+01 0.72587066213E+01 0.80489008310E+01
 0.89675755931E+01 0.10284686468E+02 0.11916361504E+02 0.13078887251E+02 0.13078761811E+02
 0.11918212518E+02 0.16153604742E+02 0.12301439553E+02 0.96627652592E+01 0.83124369536E+01
 0.73350276943E+01 0.67328701843E+01 0.65449510483E+01 0.67457790486E+01 0.73504034755E+01
 0.83197708512E+01 0.96607897820E+01 0.12296827678E+02 0.16152086651E+02 0.19695299730E+02
 0.21133304854E+02 0.19694336638E+02 0.26983140203E+02 0.20034372467E+02 0.13712603803E+02
 0.99426545166E+01 0.83135182631E+01 0.72527975592E+01 0.66837267861E+01 0.66852418251E+01
 0.72566552755E+01 0.83182643200E+01 0.99472129679E+01 0.13716730667E+02 0.20038076580E+02
 0.26985955975E+02 0.31546661364E+02 0.31545577913E+02 0.40426767687E+02 0.31776126230E+02
 0.21610266354E+02 0.13714096973E+02 0.96665432041E+01 0.80585914478E+01 0.70326703667E+01
 0.66569797477E+01 0.70209642530E+01 0.80457483009E+01 0.96625990969E+01 0.13718967322E+02
 0.21615960161E+02 0.31776913153E+02 0.40424699487E+02 0.43820273854E+02 0.51639105309E+02
 0.43916017550E+02 0.31775300841E+02 0.20034528408E+02 0.12302676803E+02 0.89804321821E+01
 0.75731715337E+01 0.67523326811E+01 0.67452269477E+01 0.75581775141E+01 0.89696707022E+01
 0.12301487215E+02 0.20037498967E+02 0.31774582843E+02 0.43911067013E+02 0.51636159722E+02
 0.31221679958E+02 0.28882390217E+02 0.22954402011E+02 0.16107487163E+02 0.10994175830E+02
 0.84854126665E+01 0.72253092400E+01 0.63958572210E+01 0.61136285968E+01 0.63967567018E+01
 0.72263439681E+01 0.84858244890E+01 0.10993899216E+02 0.16107042168E+02 0.22954225016E+02
 0.28882432880E+02 0.28876556084E+02 0.28882003410E+02 0.24711723353E+02 0.18325450084E+02
 0.12499944594E+02 0.90360391468E+01 0.74961525670E+01 0.64828066222E+01 0.59576743452E+01
 0.59613219402E+01 0.64916636577E+01 0.75048896373E+01 0.90387213073E+01 0.12493531834E+02
 0.18312230074E+02 0.24698623309E+02 0.22945685657E+02 0.24803281829E+02 0.22954947191E+02
 0.18326130400E+02 0.13135553212E+02 0.94411158067E+01 0.76494524576E+01 0.65583214849E+01
 0.58765139219E+01 0.56539569647E+01 0.58803686413E+01 0.65648948716E+01 0.76554785977E+01
 0.94418838061E+01 0.13128463099E+02 0.18314154603E+02 0.16112053997E+02 0.18571433467E+02
 0.18570417771E+02 0.16108969264E+02 0.12499817399E+02 0.94405222599E+01 0.76972963280E+01
 0.65972252398E+01 0.58452782799E+01 0.54865292360E+01 0.54845551153E+01 0.58411449571E+01
 0.65946102444E+01 0.76984575517E+01 0.94446733005E+01 0.12504420460E+02 0.11008717668E+02
 0.12884612950E+02 0.13660206959E+02 0.12873341832E+02 0.10993515186E+02 0.90345663083E+01
 0.76489487711E+01 0.65972223440E+01 0.58383485715E+01 0.54223966356E+01 0.52939364338E+01
 0.54160120290E+01 0.58285820881E+01 0.65895984145E+01 0.76491995046E+01 0.90445981033E+01
 0.84897123942E+01 0.94755215343E+01 0.10150902992E+02 0.10146934513E+02 0.94670821328E+01
 0.84837973950E+01 0.74957327635E+01 0.65584934628E+01 0.58454045361E+01 0.54227590355E+01
 0.52426660829E+01 0.52419545688E+01 0.54198999343E+01 0.58400210325E+01 0.65532056421E+01
 0.74951249360E+01 0.72178046094E+01 0.79188853067E+01 0.84085797064E+01 0.85858518151E+01
 0.84142937873E+01 0.79276824516E+01 0.72253979247E+01 0.64833987177E+01 0.58765883721E+01
 0.54871437805E+01 0.52945560235E+01 0.52416896204E+01 0.53002155270E+01 0.54944313129E+01
 0.58803686413E+01 0.64809224940E+01 0.63935932998E+01 0.68811992358E+01 0.73015060690E+01
 0.75432584331E+01 0.75491842972E+01 0.73150620401E+01 0.68931321153E+01 0.63966939782E+01
 0.59576846430E+01 0.56540369461E+01 0.54854428148E+01 0.54157077282E+01 0.54192332335E+01
 0.54947044679E+01 0.56649216910E+01 0.59640353341E+01 0.61177820804E+01 0.63501295230E+01
 0.66098873856E+01 0.68120406076E+01 0.68884810306E+01 0.68141479337E+01 0.66111740222E+01
 0.63482835721E+01 0.61139017376E+01 0.59608480450E+01 0.58809742471E+01 0.58415166308E+01
 0.58276836034E+01 0.58402664500E+01 0.58808997969E+01 0.59635511412E+01 0.63925944966E+01
 0.63504924908E+01 0.63881161638E+01 0.64735301572E+01 0.65382725114E+01 0.65338096434E+01
 0.64625244117E+01 0.63765824701E+01 0.63450208478E+01 0.63965946559E+01 0.64915258098E+01
 0.65656440924E+01 0.65939596196E+01 0.65889506856E+01 0.65537828851E+01 0.64801925505E+01
 0.72167698814E+01 0.68817261245E+01 0.66113009259E+01 0.64736246271E+01 0.64390908005E+01
 0.64360559298E+01 0.64317253855E+01 0.64643855968E+01 0.66067881472E+01 0.68848448038E+01
 0.72253979247E+01 0.75047445782E+01 0.76552278642E+01 0.76971842484E+01 0.76494524576E+01
 0.74953996804E+01 0.84895403571E+01 0.79186046451E+01 0.73029839601E+01 0.68124290051E+01
 0.65371998966E+01 0.64357339505E+01 0.64370521487E+01 0.65412000583E+01 0.68182756242E+01
 0.73077709476E+01 0.79186903934E+01 0.84840371802E+01 0.90386939988E+01 0.94414063993E+01
 0.94447894405E+01 0.90460436333E+01 0.11009361329E+02 0.94743087632E+01 0.84087535351E+01
 0.75439833849E+01 0.68874448867E+01 0.65330722061E+01 0.64324446600E+01 0.65415352357E+01
 0.68995130461E+01 0.75523476993E+01 0.84076476468E+01 0.94631942275E+01 0.10993882234E+02
 0.12494805569E+02 0.13128907072E+02 0.12505821390E+02 0.16112738778E+02 0.12883424019E+02
 0.10149615537E+02 0.85864983747E+01 0.75492350000E+01 0.68135529297E+01 0.64632491026E+01
 0.64650158178E+01 0.68172922227E+01 0.75516734502E+01 0.85854645678E+01 0.10145570803E+02
 0.12878593447E+02 0.16109209049E+02 0.18313077461E+02 0.18314321673E+02 0.22945862652E+02
 0.18571210360E+02 0.13658422067E+02 0.10146806286E+02 0.84153996755E+01 0.73151725164E+01
 0.66113009259E+01 0.63767925736E+01 0.66055015106E+01 0.73064035328E+01 0.84085797064E+01
 0.10146730031E+02 0.13666486052E+02 0.18583490466E+02 0.22954947191E+02 0.24697785691E+02
 0.28876414099E+02 0.24803866272E+02 0.18569125612E+02 0.12872196286E+02 0.94683326449E+01
 0.79287084538E+01 0.68928261521E+01 0.63477790968E+01 0.63441534048E+01 0.68840119520E+01
 0.79199970572E+01 0.94656575108E+01 0.12878636832E+02 0.18582421415E+02 0.24817059272E+02
 0.28881904087E+02 0.16435774610E+02 0.15440227067E+02 0.12996017841E+02 0.10358983296E+02
 0.85376953118E+01 0.73860029622E+01 0.65038224962E+01 0.59938940657E+01 0.58353142217E+01
 0.59947516732E+01 0.65047215935E+01 0.73861773130E+01 0.85371742322E+01 0.10358413570E+02
 0.12995864654E+02 0.15440340597E+02 0.15433720229E+02 0.15440515163E+02 0.13688919567E+02
 0.11129654231E+02 0.89676562712E+01 0.76257554986E+01 0.66123008497E+01 0.59384862652E+01
 0.56280201288E+01 0.56294283713E+01 0.59426989549E+01 0.66178800772E+01 0.76282543490E+01
 0.89619519455E+01 0.11115429240E+02 0.13673328038E+02 0.12986214678E+02 0.13762872085E+02
 0.12996547570E+02 0.11129634717E+02 0.91532814796E+01 0.77476017244E+01 0.66892586711E+01
 0.59161411633E+01 0.54921459855E+01 0.53635564232E+01 0.54929421959E+01 0.59195419025E+01
 0.66946576755E+01 0.77499660345E+01 0.91475513817E+01 0.11117296529E+02 0.10363475259E+02
 0.11340108972E+02 0.11338552348E+02 0.10359020297E+02 0.89673556870E+01 0.77476238298E+01
 0.67158845664E+01 0.59087387751E+01 0.54192816981E+01 0.52060840471E+01 0.52045427615E+01
 0.54162576472E+01 0.59075380780E+01 0.67185548306E+01 0.77533920029E+01 0.89736340035E+01
 0.85524011609E+01 0.93162132102E+01 0.96235849991E+01 0.93043490670E+01 0.85370900669E+01
 0.76256421043E+01 0.66892464065E+01 0.59084204076E+01 0.53966480277E+01 0.51375731227E+01
 0.50616688055E+01 0.51342606336E+01 0.53904961223E+01 0.59024763884E+01 0.66890807232E+01
 0.76348747174E+01 0.73889946612E+01 0.80520674798E+01 0.84258403465E+01 0.84219815737E+01
 0.80445234384E+01 0.73854860244E+01 0.66122734856E+01 0.59155574849E+01 0.54189289793E+01
 0.51379582506E+01 0.50215672253E+01 0.50219365345E+01 0.51370779817E+01 0.54140133058E+01