   2   2   0   0
  0.9638209E+01  0.2330000E-09  0.2330000E-09  0.4100000E-09  0.5000000E-15
  1.000000000000000E-004
  CAR 
 unknown system                          
     74.88501248     -5.33444271  301      7.55662211      1.00000000
     -5.334  0.0000E+00  0.0000E+00
     -5.067  0.0000E+00  0.0000E+00
     -4.800  0.0000E+00  0.0000E+00
     -4.532  0.0000E+00  0.0000E+00
     -4.265  0.0000E+00  0.0000E+00
     -3.997  0.0000E+00  0.0000E+00
     -3.730  0.0000E+00  0.0000E+00
     -3.463 -0.9665E-35 -0.2585E-35
     -3.195 -0.2766E-25 -0.7396E-26
     -2.928 -0.2148E-17 -0.5743E-18
     -2.660 -0.4269E-11 -0.1142E-11
     -2.393 -0.2206E-06 -0.5900E-07
     -2.126 -0.2488E-03 -0.6658E-04
     -1.858  0.1068E-03 -0.3802E-04
     -1.591  0.4845E-01  0.1292E-01
     -1.323  0.5574E-01  0.2782E-01
     -1.056  0.7965E-01  0.4912E-01
     -0.789 -0.4075E-02  0.4803E-01
     -0.521 -0.5439E-02  0.4658E-01
     -0.254  0.5238E-01  0.6058E-01
      0.014  0.3967E+00  0.1667E+00
      0.281  0.5853E+00  0.3232E+00
      0.548  0.1819E+00  0.3718E+00
      0.816 -0.3326E-01  0.3629E+00
      1.083  0.2546E+00  0.4310E+00
      1.351  0.6253E+00  0.5982E+00
      1.618 -0.2304E-01  0.5920E+00
      1.885 -0.1282E-01  0.5886E+00
      2.153  0.3102E+00  0.6716E+00
      2.420  0.2729E+01  0.1401E+01
      2.688  0.1821E+01  0.1888E+01
      2.955  0.2136E+01  0.2459E+01
      3.222  0.3032E+01  0.3270E+01
      3.490  0.2627E+01  0.3972E+01
      3.757  0.1849E+01  0.4467E+01
      4.024  0.1665E+01  0.4912E+01
      4.292  0.4598E+01  0.6141E+01
      4.559  0.3257E+01  0.7013E+01
      4.827  0.1484E+01  0.7409E+01
      5.094  0.2480E+01  0.8073E+01
      5.361  0.4356E+01  0.9237E+01
      5.629  0.3399E+01  0.1015E+02
      5.896  0.3052E+01  0.1096E+02
      6.164  0.2832E+01  0.1172E+02
      6.431  0.2838E+01  0.1248E+02
      6.698  0.4488E+01  0.1368E+02
      6.966  0.4226E+01  0.1481E+02
      7.233  0.3084E+01  0.1563E+02
      7.501  0.9284E+00  0.1588E+02
      7.768  0.2847E+01  0.1664E+02
      8.035  0.4026E+01  0.1772E+02
      8.303  0.4119E+01  0.1882E+02
      8.570  0.6380E+01  0.2053E+02
      8.838  0.2502E+01  0.2120E+02
      9.105  0.9372E+00  0.2145E+02
      9.372  0.1185E+01  0.2176E+02
      9.640  0.1218E+00  0.2180E+02
      9.907 -0.1503E-01  0.2179E+02
     10.175 -0.5448E-01  0.2178E+02
     10.442  0.9974E+00  0.2204E+02
     10.709  0.1271E+01  0.2238E+02
     10.977 -0.5599E-01  0.2237E+02
     11.244 -0.2958E-02  0.2237E+02
     11.512 -0.1238E-01  0.2236E+02
     11.779  0.2309E+00  0.2243E+02
     12.046  0.1503E+00  0.2247E+02
     12.314 -0.4251E-01  0.2246E+02
     12.581  0.5901E+00  0.2261E+02
     12.849  0.9408E+00  0.2286E+02
     13.116  0.1751E+01  0.2333E+02
     13.383 -0.2233E-01  0.2333E+02
     13.651  0.5851E+00  0.2348E+02
     13.918  0.1363E+00  0.2352E+02
     14.186  0.5969E+00  0.2368E+02
     14.453  0.4620E+00  0.2380E+02
     14.720  0.1042E-01  0.2381E+02
     14.988  0.2324E+00  0.2387E+02
     15.255  0.1343E+00  0.2390E+02
     15.523  0.3011E+00  0.2398E+02
     15.790  0.4953E+00  0.2412E+02
     16.057 -0.2040E-01  0.2411E+02
     16.325  0.4550E-01  0.2412E+02
     16.592  0.3034E+00  0.2420E+02
     16.860  0.2818E+00  0.2428E+02
     17.127  0.2086E+00  0.2434E+02
     17.394 -0.1138E-01  0.2433E+02
     17.662  0.1301E+00  0.2437E+02
     17.929  0.1157E+01  0.2468E+02
     18.197  0.1569E+01  0.2510E+02
     18.464  0.1652E-01  0.2510E+02
     18.731  0.2830E+00  0.2518E+02
     18.999  0.8695E+00  0.2541E+02
     19.266  0.7707E+00  0.2562E+02
     19.534  0.6976E+00  0.2580E+02
     19.801  0.9109E+00  0.2605E+02
     20.068  0.9035E+00  0.2629E+02
     20.336  0.9672E+00  0.2655E+02
     20.603  0.8008E-01  0.2657E+02
     20.871  0.9357E+00  0.2682E+02
     21.138  0.1859E+00  0.2687E+02
     21.405  0.3439E-01  0.2688E+02
     21.673  0.5227E+00  0.2702E+02
     21.940  0.1667E+01  0.2746E+02
     22.208  0.3109E+00  0.2754E+02
     22.475  0.2558E+00  0.2761E+02
     22.742  0.1020E+01  0.2789E+02
     23.010  0.8528E+00  0.2811E+02
     23.277  0.9433E+00  0.2837E+02
     23.545  0.1080E+01  0.2865E+02
     23.812  0.9281E+00  0.2890E+02
     24.079  0.2726E+00  0.2898E+02
     24.347 -0.1836E-01  0.2897E+02
     24.614  0.3009E+00  0.2905E+02
     24.882  0.4354E+00  0.2917E+02
     25.149  0.7603E+00  0.2937E+02
     25.416  0.1289E+01  0.2972E+02
     25.684  0.1099E+01  0.3001E+02
     25.951  0.6200E+00  0.3018E+02
     26.219  0.1359E+01  0.3054E+02
     26.486  0.1246E+01  0.3087E+02
     26.753  0.8958E+00  0.3111E+02
     27.021  0.9771E+00  0.3137E+02
     27.288  0.8552E+00  0.3160E+02
     27.556  0.9963E+00  0.3187E+02
     27.823  0.8044E+00  0.3208E+02
     28.090  0.9685E+00  0.3234E+02
     28.358  0.9346E+00  0.3259E+02
     28.625  0.4328E+00  0.3271E+02
     28.893  0.1328E+01  0.3306E+02
     29.160  0.4547E+00  0.3318E+02
     29.427  0.6236E+00  0.3335E+02
     29.695  0.4524E+00  0.3347E+02
     29.962  0.4138E+00  0.3358E+02
     30.230  0.2552E+00  0.3365E+02
     30.497 -0.1943E-01  0.3365E+02
     30.764  0.7596E-01  0.3367E+02
     31.032  0.1008E+01  0.3394E+02
     31.299  0.7768E+00  0.3414E+02
     31.567  0.1496E+01  0.3454E+02
     31.834  0.1667E+01  0.3499E+02
     32.101  0.1703E+01  0.3544E+02
     32.369  0.3510E+00  0.3554E+02
     32.636  0.9049E+00  0.3578E+02
     32.903  0.2011E+01  0.3632E+02
     33.171  0.8283E+00  0.3654E+02
     33.438  0.3755E+00  0.3664E+02
     33.706  0.4380E+00  0.3676E+02
     33.973  0.1236E+00  0.3679E+02
     34.240  0.1113E+01  0.3709E+02
     34.508  0.2028E+01  0.3763E+02
     34.775  0.4281E+00  0.3774E+02
     35.043  0.1149E+01  0.3805E+02
     35.310 -0.1333E-01  0.3805E+02
     35.577 -0.1442E-01  0.3804E+02
     35.845  0.1111E+01  0.3834E+02
     36.112  0.3696E+00  0.3844E+02
     36.380  0.5836E+00  0.3860E+02
     36.647  0.2413E+00  0.3866E+02
     36.914  0.1166E+01  0.3897E+02
     37.182  0.7696E+00  0.3918E+02
     37.449  0.1268E+01  0.3952E+02
     37.717  0.6157E+00  0.3968E+02
     37.984  0.4264E+00  0.3980E+02
     38.251  0.1863E+01  0.4029E+02
     38.519  0.9149E+00  0.4054E+02
     38.786  0.5080E+00  0.4067E+02
     39.054  0.1818E-01  0.4068E+02
     39.321  0.6724E+00  0.4086E+02
     39.588  0.7165E+00  0.4105E+02
     39.856  0.1636E+01  0.4149E+02
     40.123  0.1337E+01  0.4185E+02
     40.391 -0.5819E-01  0.4183E+02
     40.658  0.6480E+00  0.4200E+02
     40.925  0.1792E+01  0.4248E+02
     41.193  0.5107E+00  0.4262E+02
     41.460  0.5564E+00  0.4277E+02
     41.728  0.4592E+00  0.4289E+02
     41.995  0.1981E+01  0.4342E+02
     42.262  0.1402E+01  0.4380E+02
     42.530  0.5568E+00  0.4394E+02
     42.797  0.6766E+00  0.4413E+02
     43.065  0.4765E+00  0.4425E+02
     43.332  0.6813E+00  0.4443E+02
     43.599  0.5250E+00  0.4458E+02
     43.867  0.2335E+01  0.4520E+02
     44.134  0.9842E+00  0.4546E+02
     44.402  0.5332E+00  0.4561E+02
     44.669  0.1072E+01  0.4589E+02
     44.936  0.1582E+00  0.4593E+02
     45.204  0.1202E+01  0.4626E+02
     45.471  0.1545E+01  0.4667E+02
     45.739  0.1616E+01  0.4710E+02
     46.006  0.1261E+01  0.4744E+02
     46.273  0.5754E+00  0.4759E+02
     46.541  0.2367E+00  0.4766E+02
     46.808  0.1801E+01  0.4814E+02
     47.076  0.6263E+00  0.4830E+02
     47.343  0.8300E+00  0.4853E+02
     47.610  0.1701E+01  0.4898E+02
     47.878  0.1177E+01  0.4930E+02
     48.145  0.5982E+00  0.4946E+02
     48.413 -0.3110E-01  0.4945E+02
     48.680  0.6590E+00  0.4962E+02
     48.947  0.8155E+00  0.4984E+02
     49.215  0.1071E+00  0.4987E+02
     49.482  0.1740E+01  0.5034E+02
     49.750  0.1333E+01  0.5069E+02
     50.017  0.6553E+00  0.5087E+02
     50.284  0.1197E+01  0.5119E+02
     50.552  0.8543E+00  0.5142E+02
     50.819  0.1913E+01  0.5193E+02
     51.087  0.2118E+01  0.5249E+02
     51.354  0.1122E+00  0.5252E+02
     51.621  0.7286E+00  0.5272E+02
     51.889  0.6136E+00  0.5288E+02
     52.156  0.4179E+00  0.5299E+02
     52.424  0.5452E+00  0.5314E+02
     52.691  0.5502E+00  0.5329E+02
     52.958  0.1380E+01  0.5366E+02
     53.226  0.3073E+00  0.5374E+02
     53.493  0.8049E+00  0.5395E+02
     53.761  0.1052E+01  0.5424E+02
     54.028  0.1023E+01  0.5451E+02
     54.295  0.1292E+01  0.5485E+02
     54.563  0.2643E+01  0.5556E+02
     54.830  0.1571E+01  0.5598E+02
     55.098  0.1133E+01  0.5628E+02
     55.365  0.8494E+00  0.5651E+02
     55.632  0.4223E+00  0.5662E+02
     55.900  0.1253E+01  0.5696E+02
     56.167  0.1237E+01  0.5729E+02
     56.435  0.6877E+00  0.5747E+02
     56.702  0.8373E+00  0.5770E+02
     56.969  0.1512E+01  0.5810E+02
     57.237  0.2440E+01  0.5875E+02
     57.504  0.1520E+01  0.5916E+02
     57.772  0.1773E+01  0.5964E+02
     58.039  0.2443E+01  0.6029E+02
     58.306  0.8037E+00  0.6050E+02
     58.574  0.2330E+01  0.6113E+02
     58.841  0.1400E+01  0.6150E+02
     59.109  0.2211E+01  0.6209E+02
     59.376  0.2170E+01  0.6267E+02
     59.643  0.8777E+00  0.6291E+02
     59.911  0.1687E+01  0.6336E+02
     60.178  0.1418E+01  0.6374E+02
     60.446  0.1017E+01  0.6401E+02
     60.713  0.8502E+00  0.6424E+02
     60.980  0.1754E+01  0.6471E+02
     61.248  0.9882E+00  0.6497E+02
     61.515  0.8444E+00  0.6520E+02
     61.783  0.5219E+00  0.6533E+02
     62.050  0.1434E+01  0.6572E+02
     62.317  0.2294E+01  0.6633E+02
     62.585  0.3418E+01  0.6725E+02
     62.852  0.1987E+01  0.6778E+02
     63.119  0.1870E+01  0.6828E+02
     63.387  0.1464E+01  0.6867E+02
     63.654  0.6467E+00  0.6884E+02
     63.922  0.1218E+01  0.6917E+02
     64.189  0.1814E+01  0.6965E+02
     64.456  0.2118E+01  0.7022E+02
     64.724  0.1378E+01  0.7059E+02
     64.991  0.1276E+01  0.7093E+02
     65.259  0.1415E+01  0.7131E+02
     65.526  0.1408E+01  0.7168E+02
     65.793  0.2481E+01  0.7235E+02
     66.061  0.2327E+01  0.7297E+02
     66.328  0.1691E+01  0.7342E+02
     66.596  0.1366E+01  0.7379E+02
     66.863  0.1064E+01  0.7407E+02
     67.130  0.7612E+00  0.7427E+02
     67.398  0.1271E+01  0.7461E+02
     67.665  0.1438E+01  0.7500E+02
     67.933  0.1702E+01  0.7545E+02
     68.200  0.1410E+01  0.7583E+02
     68.467  0.4011E+00  0.7594E+02
     68.735  0.1658E+01  0.7638E+02
     69.002  0.3050E+01  0.7720E+02
     69.270  0.1285E+01  0.7754E+02
     69.537  0.1490E+01  0.7794E+02
     69.804  0.8226E+00  0.7816E+02
     70.072  0.2000E+01  0.7869E+02
     70.339  0.1374E+01  0.7906E+02
     70.607  0.1239E+01  0.7939E+02
     70.874  0.9623E+00  0.7965E+02
     71.141  0.6640E+00  0.7983E+02
     71.409  0.6534E+00  0.8000E+02
     71.676 -0.3304E-02  0.8000E+02
     71.944 -0.2998E-02  0.8000E+02
     72.211 -0.2648E-05  0.8000E+02
     72.478 -0.5123E-10  0.8000E+02
     72.746  0.0000E+00  0.8000E+02
     73.013  0.0000E+00  0.8000E+02
     73.281  0.0000E+00  0.8000E+02
     73.548  0.0000E+00  0.8000E+02
     73.815  0.0000E+00  0.8000E+02
     74.083  0.0000E+00  0.8000E+02
     74.350  0.0000E+00  0.8000E+02
     74.618  0.0000E+00  0.8000E+02
     74.885  0.0000E+00  0.8000E+02
