    2    2    1    1
  0.9638209E+01  0.2330000E-09  0.2330000E-09  0.4100000E-09  0.5000000E-15
  1.000000000000000E-004
  CAR 
 unknown system                          
     16     15     40
 
  0.0000000E+00  0.0000000E+00  0.0000000E+00  0.8000000E-02
    1       -1.688104   1.000000
    2        2.166504   1.000000
    3        5.064952   1.000000
    4        5.721761   1.000000
    5        5.723588   1.000000
    6        6.088385   1.000000
    7        6.090307   1.000000
    8        6.788426   1.000000
    9        7.172721   1.010279
   10        7.173066   1.010332
   11        8.195925  -0.000030
   12        8.196386  -0.000029
   13       15.363827   0.000000
   14       31.467654   0.000000
   15       31.661660   0.000000
   16       34.624905   0.000000
   17       37.351286   0.000000
   18       37.352706   0.000000
   19       38.201046   0.000000
   20       38.203605   0.000000
   21       39.432062   0.000000
   22       40.775929   0.000000
   23       40.776335   0.000000
   24       41.753162   0.000000
   25       45.267468   0.000000
   26       45.267957   0.000000
   27       45.483744   0.000000
   28       49.385358   0.000000
   29       49.390449   0.000000
   30       50.784619   0.000000
   31       50.787873   0.000000
   32       53.576405   0.000000
   33       61.171862   0.000000
   34       63.320483   0.000000
   35       63.331858   0.000000
   36       63.647070   0.000000
   37       65.162326   0.000000
   38       66.336426   0.000000
   39       66.346250   0.000000
   40       68.143556   0.000000
 
  0.2000000E+00 -0.1306388E-16  0.0000000E+00  0.4800000E-01
    1       -0.118412   1.000000
    2        3.140012   1.000000
    3        4.489338   1.000000
    4        4.854402   1.000000
    5        5.417159   1.000000
    6        6.231815   1.000000
    7        6.475275   1.000000
    8        6.631179   1.000000
    9        6.683934   1.000000
   10        6.967951   1.000128
   11        8.281279  -0.000002
   12       11.753379  -0.000000
   13       15.523542   0.000000
   14       25.766026   0.000000
   15       30.934128   0.000000
   16       31.434028   0.000000
   17       31.599415   0.000000
   18       33.113480   0.000000
   19       37.132119   0.000000
   20       38.515957   0.000000
   21       38.619328   0.000000
   22       39.421574   0.000000
   23       42.040414   0.000000
   24       43.231034   0.000000
   25       46.730569   0.000000
   26       48.015240   0.000000
   27       49.296818   0.000000
   28       51.844683   0.000000
   29       53.434313   0.000000
   30       56.027191   0.000000
   31       57.181478   0.000000
   32       58.800219   0.000000
   33       59.765372   0.000000
   34       59.913031   0.000000
   35       60.110138   0.000000
   36       61.678402   0.000000
   37       64.495478   0.000000
   38       67.600403   0.000000
   39       68.627318   0.000000
   40       69.011006   0.000000
 
  0.4000000E+00  0.1037082E-16  0.0000000E+00  0.4800000E-01
    1        2.416956   1.000000
    2        2.894318   1.000000
    3        3.081101   1.000000
    4        5.282123   1.000000
    5        5.518556   1.000000
    6        5.892194   1.000000
    7        5.998624   1.000000
    8        8.323507  -0.000000
    9        8.406603  -0.000000
   10        8.510447  -0.000000
   11        8.919380  -0.000000
   12       14.957954   0.000000
   13       16.801817   0.000000
   14       19.268121   0.000000
   15       23.917125   0.000000
   16       26.124798   0.000000
   17       26.444661   0.000000
   18       31.786590   0.000000
   19       34.310132   0.000000
   20       36.987421   0.000000
   21       38.410861   0.000000
   22       40.675282   0.000000
   23       41.792170   0.000000
   24       43.515224   0.000000
   25       49.939316   0.000000
   26       53.006518   0.000000
   27       54.006337   0.000000
   28       57.357575   0.000000
   29       58.007035   0.000000
   30       58.088658   0.000000
   31       58.822867   0.000000
   32       61.248181   0.000000
   33       61.871131   0.000000
   34       62.143106   0.000000
   35       64.308933   0.000000
   36       66.351516   0.000000
   37       66.756053   0.000000
   38       67.880891   0.000000
   39       68.717248   0.000000
   40       68.940001   0.000000
 
  0.2000000E+00  0.2000000E+00  0.0000000E+00  0.4800000E-01
    1        2.339396   1.000000
    2        3.507190   1.000000
    3        3.977746   1.000000
    4        4.009065   1.000000
    5        5.417176   1.000000
    6        5.600046   1.000000
    7        6.328071   1.000000
    8        6.680754   1.000000
    9        8.093599  -0.000487
   10        8.212679  -0.000018
   11        9.045769  -0.000000
   12       15.607511   0.000000
   13       16.428454   0.000000
   14       21.487052   0.000000
   15       22.360271   0.000000
   16       27.602987   0.000000
   17       28.891179   0.000000
   18       31.094010   0.000000
   19       31.734926   0.000000
   20       38.264436   0.000000
   21       39.962659   0.000000
   22       43.755029   0.000000
   23       44.132810   0.000000
   24       46.490310   0.000000
   25       47.464960   0.000000
   26       49.494158   0.000000
   27       49.832641   0.000000
   28       54.234150   0.000000
   29       56.657334   0.000000
   30       57.026484   0.000000
   31       57.149054   0.000000
   32       61.929637   0.000000
   33       62.276922   0.000000
   34       62.862089   0.000000
   35       65.098140   0.000000
   36       65.759899   0.000000
   37       65.970229   0.000000
   38       67.588595   0.000000
   39       67.941545   0.000000
   40       71.042228   0.000000
 
  0.4000000E+00  0.2000000E+00  0.0000000E+00  0.4800000E-01
    1        3.251113   1.000000
    2        3.402480   1.000000
    3        3.609376   1.000000
    4        4.961558   1.000000
    5        5.384458   1.000000
    6        5.469013   1.000000
    7        6.174611   1.000000
    8        7.959348  -0.007648
    9        7.981715  -0.005220
   10        8.348654  -0.000000
   11       12.519928  -0.000000
   12       14.335642   0.000000
   13       19.703848   0.000000
   14       20.182652   0.000000
   15       20.860867   0.000000
   16       22.629572   0.000000
   17       25.068339   0.000000
   18       27.079272   0.000000
   19       30.022279   0.000000
   20       40.603155   0.000000
   21       42.659453   0.000000
   22       43.939064   0.000000
   23       45.377114   0.000000
   24       46.717092   0.000000
   25       50.400351   0.000000
   26       50.623468   0.000000
   27       51.555711   0.000000
   28       54.019013   0.000000
   29       55.951947   0.000000
   30       57.901420   0.000000
   31       59.309260   0.000000
   32       60.744218   0.000000
   33       62.457957   0.000000
   34       62.582871   0.000000
   35       67.699286   0.000000
   36       68.591951   0.000000
   37       70.313451   0.000000
   38       70.368635   0.000000
   39       70.424873   0.000000
   40       70.870000   0.000000
 
  0.0000000E+00  0.0000000E+00  0.2000000E+00  0.1600000E-01
    1       -1.290515   1.000000
    2        1.992130   1.000000
    3        4.970917   1.000000
    4        5.688388   1.000000
    5        5.690149   1.000000
    6        5.880926   1.000000
    7        5.983696   1.000000
    8        5.985557   1.000000
    9        7.285658   1.033287
   10        7.286114   1.033356
   11        8.125101  -0.000219
   12        8.125609  -0.000216
   13       17.006192   0.000000
   14       29.106424   0.000000
   15       31.853364   0.000000
   16       33.869517   0.000000
   17       37.502208   0.000000
   18       37.503331   0.000000
   19       38.187707   0.000000
   20       38.189942   0.000000
   21       40.631872   0.000000
   22       40.633208   0.000000
   23       40.945132   0.000000
   24       42.927401   0.000000
   25       43.730611   0.000000
   26       43.732059   0.000000
   27       46.977077   0.000000
   28       50.261199   0.000000
   29       50.265638   0.000000
   30       52.408496   0.000000
   31       52.411313   0.000000
   32       52.563809   0.000000
   33       58.513512   0.000000
   34       62.293879   0.000000
   35       62.303003   0.000000
   36       62.499162   0.000000
   37       62.503269   0.000000
   38       63.152059   0.000000
   39       64.092763   0.000000
   40       68.037274   0.000000
 
  0.2000000E+00 -0.1306388E-16  0.2000000E+00  0.9600000E-01
    1        0.215186   1.000000
    2        3.052242   1.000000
    3        4.236258   1.000000
    4        4.958729   1.000000
    5        5.228612   1.000000
    6        5.927605   1.000000
    7        6.489247   1.000000
    8        6.801941   1.000001
    9        6.962927   1.000111
   10        7.123164   1.004488
   11        8.208324  -0.000020
   12       10.388217  -0.000000
   13       17.732062   0.000000
   14       26.070337   0.000000
   15       29.673790   0.000000
   16       30.873824   0.000000
   17       31.419439   0.000000
   18       32.791784   0.000000
   19       35.733350   0.000000
   20       37.456764   0.000000
   21       39.190830   0.000000
   22       40.842500   0.000000
   23       43.656986   0.000000
   24       45.726351   0.000000
   25       47.679868   0.000000
   26       47.854045   0.000000
   27       48.628415   0.000000
   28       51.011983   0.000000
   29       52.837021   0.000000
   30       55.979507   0.000000
   31       56.961697   0.000000
   32       57.804767   0.000000
   33       58.369093   0.000000
   34       58.528509   0.000000
   35       61.861644   0.000000
   36       63.250073   0.000000
   37       64.913178   0.000000
   38       65.328337   0.000000
   39       66.410550   0.000000
   40       69.255823   0.000000
 
  0.4000000E+00  0.1037082E-16  0.2000000E+00  0.9600000E-01
    1        2.250879   1.000000
    2        2.788668   1.000000
    3        3.548277   1.000000
    4        4.365629   1.000000
    5        5.943566   1.000000
    6        6.197653   1.000000
    7        6.833047   1.000002
    8        8.017643  -0.002645
    9        8.419142  -0.000000
   10        8.590308  -0.000000
   11        8.603606  -0.000000
   12       12.914092  -0.000000
   13       17.996913   0.000000
   14       20.145175   0.000000
   15       23.233287   0.000000
   16       27.062119   0.000000
   17       27.575702   0.000000
   18       31.796441   0.000000
   19       34.083190   0.000000
   20       34.279430   0.000000
   21       37.322322   0.000000
   22       41.356873   0.000000
   23       42.041835   0.000000
   24       45.521963   0.000000
   25       49.460211   0.000000
   26       52.172760   0.000000
   27       54.464694   0.000000
   28       56.313024   0.000000
   29       56.697439   0.000000
   30       59.493574   0.000000
   31       59.825193   0.000000
   32       60.838890   0.000000
   33       62.287064   0.000000
   34       63.843236   0.000000
   35       64.318919   0.000000
   36       65.657389   0.000000
   37       66.355217   0.000000
   38       67.258474   0.000000
   39       69.842336   0.000000
   40       69.890645   0.000000
 
  0.2000000E+00  0.2000000E+00  0.2000000E+00  0.9600000E-01
    1        2.429225   1.000000
    2        3.381261   1.000000
    3        4.118670   1.000000
    4        4.173598   1.000000
    5        5.415383   1.000000
    6        5.506800   1.000000
    7        6.278271   1.000000
    8        7.003272   1.000324
    9        7.802463  -0.035455
   10        8.368985  -0.000000
   11        9.151164  -0.000000
   12       12.922158  -0.000000
   13       19.650632   0.000000
   14       21.851088   0.000000
   15       22.770284   0.000000
   16       26.419333   0.000000
   17       27.469669   0.000000
   18       32.398840   0.000000
   19       32.933912   0.000000
   20       35.813289   0.000000
   21       40.905473   0.000000
   22       43.838183   0.000000
   23       44.406235   0.000000
   24       45.194297   0.000000
   25       47.529818   0.000000
   26       49.586613   0.000000
   27       51.590471   0.000000
   28       53.458995   0.000000
   29       55.189221   0.000000
   30       58.398209   0.000000
   31       60.335795   0.000000
   32       62.118667   0.000000
   33       62.234605   0.000000
   34       62.509203   0.000000
   35       63.500375   0.000000
   36       65.688697   0.000000
   37       66.001859   0.000000
   38       67.510744   0.000000
   39       68.655011   0.000000
   40       68.792738   0.000000
 
  0.4000000E+00  0.2000000E+00  0.2000000E+00  0.9600000E-01
    1        2.978285   1.000000
    2        3.478384   1.000000
    3        4.109499   1.000000
    4        4.287695   1.000000
    5        5.153869   1.000000
    6        5.839735   1.000000
    7        6.465136   1.000000
    8        7.607145   0.293598
    9        8.000091  -0.003724
   10        8.391212  -0.000000
   11       12.592693  -0.000000
   12       14.103360   0.000000
   13       18.752072   0.000000
   14       19.290648   0.000000
   15       20.717739   0.000000
   16       24.639020   0.000000
   17       25.664528   0.000000
   18       26.610501   0.000000
   19       32.019983   0.000000
   20       38.094927   0.000000
   21       39.867256   0.000000
   22       41.910260   0.000000
   23       46.122232   0.000000
   24       47.392801   0.000000
   25       50.739136   0.000000
   26       50.775223   0.000000
   27       54.227845   0.000000
   28       55.069230   0.000000
   29       57.634411   0.000000
   30       57.845410   0.000000
   31       59.118098   0.000000
   32       59.243893   0.000000
   33       62.560070   0.000000
   34       63.067086   0.000000
   35       65.812108   0.000000
   36       67.882453   0.000000
   37       68.224974   0.000000
   38       69.822500   0.000000
   39       70.080087   0.000000
   40       71.238674   0.000000
 
  0.0000000E+00  0.0000000E+00  0.4000000E+00  0.1600000E-01
    1       -0.194831   1.000000
    2        1.184604   1.000000
    3        4.797925   1.000000
    4        4.856130   1.000000
    5        5.694859   1.000000
    6        5.696571   1.000000
    7        5.818088   1.000000
    8        5.819853   1.000000
    9        7.685839   0.060376
   10        7.686368   0.059316
   11        7.939069  -0.010505
   12        7.939633  -0.010417
   13       20.672419   0.000000
   14       25.014320   0.000000
   15       31.984558   0.000000
   16       32.688640   0.000000
   17       37.917797   0.000000
   18       37.918540   0.000000
   19       38.169686   0.000000
   20       38.171021   0.000000
   21       40.692494   0.000000
   22       40.695207   0.000000
   23       41.784820   0.000000
   24       41.787280   0.000000
   25       43.691459   0.000000
   26       44.686747   0.000000
   27       49.617541   0.000000
   28       50.810367   0.000000
   29       52.878012   0.000000
   30       52.881425   0.000000
   31       54.774209   0.000000
   32       54.776800   0.000000
   33       56.328591   0.000000
   34       57.689078   0.000000
   35       59.145475   0.000000
   36       59.149380   0.000000
   37       59.884667   0.000000
   38       59.890368   0.000000
   39       66.174060   0.000000
   40       68.685273   0.000000
 
  0.2000000E+00 -0.1306388E-16  0.4000000E+00  0.9600000E-01
    1        1.130094   1.000000
    2        2.313597   1.000000
    3        4.248712   1.000000
    4        4.732842   1.000000
    5        5.230930   1.000000
    6        5.603143   1.000000
    7        6.496598   1.000000
    8        6.640506   1.000000
    9        7.583114   0.388986
   10        7.741508  -0.015403
   11        7.914622  -0.014819
   12        8.801793  -0.000000
   13       21.716386   0.000000
   14       26.189250   0.000000
   15       26.926981   0.000000
   16       28.322932   0.000000
   17       32.774281   0.000000
   18       33.461242   0.000000
   19       34.338088   0.000000
   20       34.885539   0.000000
   21       42.203649   0.000000
   22       43.809562   0.000000
   23       45.279098   0.000000
   24       45.828078   0.000000
   25       46.763374   0.000000
   26       47.246916   0.000000
   27       50.824693   0.000000
   28       50.955192   0.000000
   29       53.616765   0.000000
   30       53.922624   0.000000
   31       54.616962   0.000000
   32       55.615883   0.000000
   33       57.644925   0.000000
   34       60.179737   0.000000
   35       61.364949   0.000000
   36       64.006180   0.000000
   37       64.133300   0.000000
   38       65.201277   0.000000
   39       65.953148   0.000000
   40       67.952879   0.000000
 
  0.4000000E+00  0.1037082E-16  0.4000000E+00  0.9600000E-01
    1        2.252191   1.000000
    2        2.590037   1.000000
    3        3.763799   1.000000
    4        3.999606   1.000000
    5        6.635678   1.000000
    6        6.746267   1.000000
    7        7.461795   0.855563
    8        7.718971   0.007008
    9        8.498315  -0.000000
   10        8.533314  -0.000000
   11        8.591924  -0.000000
   12       10.473297  -0.000000
   13       18.975252   0.000000
   14       19.956717   0.000000
   15       25.136188   0.000000
   16       28.007973   0.000000
   17       28.799123   0.000000
   18       31.306471   0.000000
   19       31.884179   0.000000
   20       32.638093   0.000000
   21       36.863015   0.000000
   22       39.637564   0.000000
   23       45.040997   0.000000
   24       46.736880   0.000000
   25       48.767835   0.000000
   26       50.298236   0.000000
   27       54.588847   0.000000
   28       57.215019   0.000000
   29       58.445100   0.000000
   30       58.787442   0.000000
   31       59.884280   0.000000
   32       61.101909   0.000000
   33       64.510476   0.000000
   34       64.648227   0.000000
   35       64.927153   0.000000
   36       65.418848   0.000000
   37       66.199388   0.000000
   38       66.918634   0.000000
   39       68.909766   0.000000
   40       70.759075   0.000000
 
  0.2000000E+00  0.2000000E+00  0.4000000E+00  0.9600000E-01
    1        2.678806   1.000000
    2        3.040681   1.000000
    3        4.409864   1.000000
    4        4.512272   1.000000
    5        5.143577   1.000000
    6        5.178602   1.000000
    7        6.458837   1.000000
    8        7.041152   1.000814
    9        7.979177  -0.005461
   10        8.474320  -0.000000
   11        9.294477  -0.000000
   12       10.512094  -0.000000
   13       22.746232   0.000000
   14       23.229492   0.000000
   15       23.605978   0.000000
   16       25.357826   0.000000
   17       25.427801   0.000000
   18       28.683485   0.000000
   19       36.277745   0.000000
   20       38.036475   0.000000
   21       39.957704   0.000000
   22       41.784008   0.000000
   23       42.531710   0.000000
   24       43.067652   0.000000
   25       49.314416   0.000000
   26       50.109436   0.000000
   27       52.704529   0.000000
   28       54.884775   0.000000
   29       57.175201   0.000000
   30       58.954897   0.000000
   31       58.972749   0.000000
   32       60.650969   0.000000
   33       62.507495   0.000000
   34       62.554788   0.000000
   35       62.799969   0.000000
   36       63.126192   0.000000
   37       65.707965   0.000000
   38       68.976552   0.000000
   39       69.436812   0.000000
   40       70.151869   0.000000
 
  0.4000000E+00  0.2000000E+00  0.4000000E+00  0.9600000E-01
    1        2.989514   1.000000
    2        3.337913   1.000000
    3        4.083545   1.000000
    4        4.546107   1.000000
    5        5.103240   1.000000
    6        5.849689   1.000000
    7        6.853985   1.000004
    8        7.118303   1.004103
    9        8.172410  -0.000060
   10        8.396328  -0.000000
   11       12.963928  -0.000000
   12       13.570441   0.000000
   13       17.927920   0.000000
   14       18.085468   0.000000
   15       21.880460   0.000000
   16       23.537450   0.000000
   17       28.071399   0.000000
   18       29.271804   0.000000
   19       34.404165   0.000000
   20       34.824648   0.000000
   21       36.717956   0.000000
   22       39.686086   0.000000
   23       44.545086   0.000000
   24       45.701324   0.000000
   25       54.428224   0.000000
   26       54.452378   0.000000
   27       55.770768   0.000000
   28       56.782315   0.000000
   29       57.280168   0.000000
   30       57.942168   0.000000
   31       59.303129   0.000000
   32       60.840968   0.000000
   33       62.908810   0.000000
   34       63.886534   0.000000
   35       64.294102   0.000000
   36       66.779181   0.000000
   37       67.306146   0.000000
   38       68.923169   0.000000
   39       69.410723   0.000000
   40       70.532651   0.000000
