   4   4   0   0
  0.9199868E+01  0.3326191E-09  0.3326191E-09  0.3326191E-09  0.5000000E-15
  1.000000000000000E-004
  CAR 
 unknown system                          
     42.71655080     -3.48181629  301      8.05843751      1.00000000
     -3.482  0.0000E+00  0.0000E+00
     -3.328  0.0000E+00  0.0000E+00
     -3.174  0.0000E+00  0.0000E+00
     -3.020 -0.1676E-30 -0.2581E-31
     -2.866 -0.2519E-25 -0.3879E-26
     -2.712 -0.1145E-20 -0.1763E-21
     -2.558 -0.1515E-16 -0.2333E-17
     -2.404 -0.6231E-13 -0.9598E-14
     -2.250 -0.7614E-10 -0.1173E-10
     -2.096 -0.2773E-07 -0.4283E-08
     -1.942 -0.3019E-05 -0.4692E-06
     -1.788 -0.9960E-04 -0.1581E-04
     -1.634 -0.9886E-03 -0.1680E-03
     -1.480 -0.1551E-02 -0.4069E-03
     -1.326  0.1737E-01  0.2268E-02
     -1.172  0.7603E-01  0.1398E-01
     -1.018  0.1090E+00  0.3077E-01
     -0.864  0.1109E+00  0.4785E-01
     -0.710  0.2122E+00  0.8052E-01
     -0.556  0.2149E+00  0.1136E+00
     -0.402  0.1237E+00  0.1327E+00
     -0.248  0.2481E+00  0.1709E+00
     -0.094  0.3282E+00  0.2214E+00
      0.060  0.2523E+00  0.2603E+00
      0.214  0.2978E+00  0.3061E+00
      0.368  0.3554E+00  0.3609E+00
      0.522  0.2316E+00  0.3965E+00
      0.676  0.4084E+00  0.4594E+00
      0.830  0.4686E+00  0.5316E+00
      0.984  0.4990E+00  0.6084E+00
      1.138  0.4614E+00  0.6795E+00
      1.292  0.2551E+00  0.7188E+00
      1.446  0.5642E+00  0.8057E+00
      1.600  0.8044E+00  0.9295E+00
      1.754  0.6666E+00  0.1032E+01
      1.908  0.5529E+00  0.1117E+01
      2.062  0.6077E+00  0.1211E+01
      2.216  0.1109E+01  0.1382E+01
      2.370  0.1252E+01  0.1574E+01
      2.524  0.1742E+01  0.1843E+01
      2.678  0.3054E+01  0.2313E+01
      2.832  0.3753E+01  0.2891E+01
      2.986  0.3872E+01  0.3487E+01
      3.140  0.3444E+01  0.4018E+01
      3.294  0.4445E+01  0.4702E+01
      3.448  0.5116E+01  0.5490E+01
      3.602  0.4969E+01  0.6255E+01
      3.756  0.5864E+01  0.7158E+01
      3.910  0.5665E+01  0.8031E+01
      4.064  0.4899E+01  0.8785E+01
      4.218  0.4855E+01  0.9533E+01
      4.372  0.5163E+01  0.1033E+02
      4.526  0.4665E+01  0.1105E+02
      4.680  0.4489E+01  0.1174E+02
      4.834  0.4290E+01  0.1240E+02
      4.988  0.4307E+01  0.1306E+02
      5.142  0.3841E+01  0.1365E+02
      5.296  0.4882E+01  0.1440E+02
      5.450  0.6123E+01  0.1535E+02
      5.604  0.5983E+01  0.1627E+02
      5.758  0.4990E+01  0.1704E+02
      5.912  0.6341E+01  0.1801E+02
      6.066  0.7644E+01  0.1919E+02
      6.220  0.7477E+01  0.2034E+02
      6.374  0.7592E+01  0.2151E+02
      6.528  0.8496E+01  0.2282E+02
      6.682  0.7711E+01  0.2401E+02
      6.836  0.5883E+01  0.2491E+02
      6.990  0.5477E+01  0.2576E+02
      7.144  0.4723E+01  0.2648E+02
      7.298  0.4715E+01  0.2721E+02
      7.452  0.5532E+01  0.2806E+02
      7.606  0.6004E+01  0.2899E+02
      7.760  0.6527E+01  0.2999E+02
      7.914  0.7246E+01  0.3111E+02
      8.068  0.6116E+01  0.3205E+02
      8.222  0.5119E+01  0.3284E+02
      8.376  0.5771E+01  0.3373E+02
      8.530  0.5643E+01  0.3460E+02
      8.684  0.5201E+01  0.3540E+02
      8.838  0.6413E+01  0.3638E+02
      8.992  0.7283E+01  0.3751E+02
      9.146  0.9839E+01  0.3902E+02
      9.300  0.1068E+02  0.4067E+02
      9.454  0.6228E+01  0.4163E+02
      9.608  0.2699E+01  0.4204E+02
      9.762  0.1702E+01  0.4230E+02
      9.916  0.1677E+01  0.4256E+02
     10.070  0.1046E+01  0.4272E+02
     10.224  0.8316E+00  0.4285E+02
     10.378  0.6805E+00  0.4296E+02
     10.532  0.9185E+00  0.4310E+02
     10.686  0.1608E+01  0.4334E+02
     10.840  0.1317E+01  0.4355E+02
     10.994  0.4926E+00  0.4362E+02
     11.148  0.5298E+00  0.4370E+02
     11.302  0.1428E+01  0.4392E+02
     11.456  0.1664E+01  0.4418E+02
     11.610  0.7504E+00  0.4430E+02
     11.764  0.6678E+00  0.4440E+02
     11.918  0.9300E+00  0.4454E+02
     12.072  0.8487E+00  0.4467E+02
     12.226  0.1197E+01  0.4486E+02
     12.380  0.1219E+01  0.4505E+02
     12.534  0.5251E+00  0.4513E+02
     12.688  0.7639E+00  0.4524E+02
     12.842  0.1206E+01  0.4543E+02
     12.996  0.1018E+01  0.4559E+02
     13.150  0.8886E+00  0.4572E+02
     13.304  0.7730E+00  0.4584E+02
     13.458  0.8279E+00  0.4597E+02
     13.612  0.9222E+00  0.4611E+02
     13.766  0.6846E+00  0.4622E+02
     13.920  0.3452E+00  0.4627E+02
     14.074  0.6643E+00  0.4637E+02
     14.228  0.1065E+01  0.4654E+02
     14.382  0.1060E+01  0.4670E+02
     14.536  0.8242E+00  0.4683E+02
     14.690  0.5502E+00  0.4691E+02
     14.844  0.3677E+00  0.4697E+02
     14.998  0.5354E+00  0.4705E+02
     15.152  0.7920E+00  0.4717E+02
     15.306  0.5084E+00  0.4725E+02
     15.460  0.2510E+00  0.4729E+02
     15.614  0.5670E+00  0.4738E+02
     15.768  0.6056E+00  0.4747E+02
     15.921  0.5646E+00  0.4756E+02
     16.075  0.6410E+00  0.4766E+02
     16.229  0.3361E+00  0.4771E+02
     16.383  0.2133E+00  0.4774E+02
     16.537  0.1773E+00  0.4777E+02
     16.691  0.1606E+00  0.4779E+02
     16.845  0.4345E+00  0.4786E+02
     16.999  0.3397E+00  0.4791E+02
     17.153  0.1406E+00  0.4793E+02
     17.307  0.1100E+00  0.4795E+02
     17.461  0.1283E+00  0.4797E+02
     17.615  0.1051E+01  0.4813E+02
     17.769  0.1936E+01  0.4843E+02
     17.923  0.1626E+01  0.4868E+02
     18.077  0.1887E+01  0.4897E+02
     18.231  0.1611E+01  0.4922E+02
     18.385  0.8617E+00  0.4935E+02
     18.539  0.1036E+01  0.4951E+02
     18.693  0.1208E+01  0.4970E+02
     18.847  0.1016E+01  0.4985E+02
     19.001  0.8403E+00  0.4998E+02
     19.155  0.1034E+01  0.5014E+02
     19.309  0.1120E+01  0.5031E+02
     19.463  0.9349E+00  0.5046E+02
     19.617  0.8768E+00  0.5059E+02
     19.771  0.9739E+00  0.5074E+02
     19.925  0.9478E+00  0.5089E+02
     20.079  0.7415E+00  0.5100E+02
     20.233  0.9323E+00  0.5115E+02
     20.387  0.7245E+00  0.5126E+02
     20.541  0.6312E+00  0.5136E+02
     20.695  0.9255E+00  0.5150E+02
     20.849  0.1168E+01  0.5168E+02
     21.003  0.1344E+01  0.5189E+02
     21.157  0.1003E+01  0.5204E+02
     21.311  0.5968E+00  0.5213E+02
     21.465  0.8431E+00  0.5226E+02
     21.619  0.1844E+01  0.5255E+02
     21.773  0.1917E+01  0.5284E+02
     21.927  0.1200E+01  0.5303E+02
     22.081  0.6913E+00  0.5313E+02
     22.235  0.9231E+00  0.5327E+02
     22.389  0.1987E+01  0.5358E+02
     22.543  0.2043E+01  0.5389E+02
     22.697  0.1391E+01  0.5411E+02
     22.851  0.1188E+01  0.5429E+02
     23.005  0.1629E+01  0.5454E+02
     23.159  0.1591E+01  0.5479E+02
     23.313  0.1035E+01  0.5495E+02
     23.467  0.1039E+01  0.5511E+02
     23.621  0.1571E+01  0.5535E+02
     23.775  0.1295E+01  0.5555E+02
     23.929  0.1564E+01  0.5579E+02
     24.083  0.1977E+01  0.5609E+02
     24.237  0.2004E+01  0.5640E+02
     24.391  0.1587E+01  0.5665E+02
     24.545  0.1027E+01  0.5680E+02
     24.699  0.9794E+00  0.5696E+02
     24.853  0.1917E+01  0.5725E+02
     25.007  0.2122E+01  0.5758E+02
     25.161  0.1267E+01  0.5777E+02
     25.315  0.1322E+01  0.5798E+02
     25.469  0.1628E+01  0.5823E+02
     25.623  0.2094E+01  0.5855E+02
     25.777  0.1905E+01  0.5884E+02
     25.931  0.1341E+01  0.5905E+02
     26.085  0.1876E+01  0.5934E+02
     26.239  0.2636E+01  0.5974E+02
     26.393  0.1655E+01  0.6000E+02
     26.547  0.5639E+00  0.6009E+02
     26.701  0.1100E+01  0.6026E+02
     26.855  0.2672E+01  0.6067E+02
     27.009  0.2169E+01  0.6100E+02
     27.163  0.8553E+00  0.6113E+02
     27.317  0.1428E+01  0.6135E+02
     27.471  0.2018E+01  0.6166E+02
     27.625  0.1691E+01  0.6192E+02
     27.779  0.1970E+01  0.6223E+02
     27.933  0.1917E+01  0.6252E+02
     28.087  0.1760E+01  0.6279E+02
     28.241  0.9258E+00  0.6294E+02
     28.395  0.6444E+00  0.6304E+02
     28.549  0.1585E+01  0.6328E+02
     28.703  0.2071E+01  0.6360E+02
     28.857  0.1596E+01  0.6384E+02
     29.011  0.1522E+01  0.6408E+02
     29.165  0.1824E+01  0.6436E+02
     29.319  0.1698E+01  0.6462E+02
     29.473  0.1425E+01  0.6484E+02
     29.627  0.1503E+01  0.6507E+02
     29.781  0.1242E+01  0.6526E+02
     29.935  0.1154E+01  0.6544E+02
     30.089  0.1640E+01  0.6569E+02
     30.243  0.1815E+01  0.6597E+02
     30.397  0.2053E+01  0.6629E+02
     30.551  0.1729E+01  0.6656E+02
     30.705  0.1203E+01  0.6674E+02
     30.859  0.9586E+00  0.6689E+02
     31.013  0.5417E+00  0.6697E+02
     31.167  0.8865E+00  0.6711E+02
     31.321  0.1645E+01  0.6736E+02
     31.475  0.2271E+01  0.6771E+02
     31.629  0.2269E+01  0.6806E+02
     31.783  0.1267E+01  0.6826E+02
     31.937  0.7253E+00  0.6837E+02
     32.091  0.1152E+01  0.6854E+02
     32.245  0.1439E+01  0.6877E+02
     32.399  0.1622E+01  0.6902E+02
     32.553  0.1422E+01  0.6923E+02
     32.707  0.7103E+00  0.6934E+02
     32.861  0.5422E+00  0.6943E+02
     33.015  0.1224E+01  0.6962E+02
     33.169  0.1997E+01  0.6992E+02
     33.323  0.2502E+01  0.7031E+02
     33.477  0.1968E+01  0.7061E+02
     33.631  0.1666E+01  0.7087E+02
     33.785  0.1523E+01  0.7110E+02
     33.939  0.1786E+01  0.7138E+02
     34.093  0.1818E+01  0.7166E+02
     34.247  0.1710E+01  0.7192E+02
     34.401  0.1666E+01  0.7218E+02
     34.555  0.1353E+01  0.7239E+02
     34.709  0.2121E+01  0.7271E+02
     34.863  0.2386E+01  0.7308E+02
     35.017  0.2052E+01  0.7340E+02
     35.171  0.1976E+01  0.7370E+02
     35.325  0.1163E+01  0.7388E+02
     35.479  0.1066E+01  0.7404E+02
     35.633  0.1623E+01  0.7429E+02
     35.787  0.2098E+01  0.7462E+02
     35.941  0.2021E+01  0.7493E+02
     36.095  0.1555E+01  0.7517E+02
     36.249  0.2105E+01  0.7549E+02
     36.403  0.2808E+01  0.7592E+02
     36.557  0.2341E+01  0.7628E+02
     36.711  0.1413E+01  0.7650E+02
     36.865  0.1046E+01  0.7666E+02
     37.019  0.1331E+01  0.7687E+02
     37.173  0.1703E+01  0.7713E+02
     37.327  0.1798E+01  0.7741E+02
     37.481  0.1507E+01  0.7764E+02
     37.635  0.1389E+01  0.7785E+02
     37.789  0.1437E+01  0.7807E+02
     37.943  0.1754E+01  0.7834E+02
     38.097  0.1534E+01  0.7858E+02
     38.251  0.9476E+00  0.7873E+02
     38.405  0.6622E+00  0.7883E+02
     38.559  0.8678E+00  0.7896E+02
     38.713  0.7140E+00  0.7907E+02
     38.867  0.4442E+00  0.7914E+02
     39.021  0.7487E+00  0.7926E+02
     39.175  0.9474E+00  0.7940E+02
     39.329  0.1245E+01  0.7959E+02
     39.483  0.1150E+01  0.7977E+02
     39.637  0.5976E+00  0.7986E+02
     39.791  0.1330E+00  0.7988E+02
     39.945  0.1879E-01  0.7989E+02
     40.099  0.1319E+00  0.7991E+02
     40.253  0.2012E+00  0.7994E+02
     40.407  0.1510E+00  0.7996E+02
     40.561  0.9266E-01  0.7998E+02
     40.715  0.1306E+00  0.8000E+02
     40.869  0.3882E-01  0.8000E+02
     41.023 -0.6598E-02  0.8000E+02
     41.177 -0.1634E-02  0.8000E+02
     41.331 -0.6343E-04  0.8000E+02
     41.485 -0.6347E-06  0.8000E+02
     41.639 -0.1796E-08  0.8000E+02
     41.793 -0.1486E-11  0.8000E+02
     41.947 -0.3640E-15  0.8000E+02
     42.101  0.0000E+00  0.8000E+02
     42.255  0.0000E+00  0.8000E+02
     42.409  0.0000E+00  0.8000E+02
     42.563  0.0000E+00  0.8000E+02
     42.717  0.0000E+00  0.8000E+02
