 vasp.6.2.0 18Jan21 (build Mar 17 2021 09:06:54) complex                        
  
 POSCAR found type information on POSCAR Fe
 POSCAR found :  1 types and       4 ions
 LDA part: xc-table for Pade appr. of Perdew
 POSCAR, INCAR and KPOINTS ok, starting setup
 FFT: planning ...
 WAVECAR not read
 WARNING: chargedensity file is incomplete
 entering main loop
       N       E                     dE             d eps       ncg     rms          rms(c)
DAV:   1     0.166203121685E+03    0.16620E+03   -0.81817E+03  4880   0.709E+02
DAV:   2    -0.237625083852E+02   -0.18997E+03   -0.16680E+03  4648   0.190E+02
DAV:   3    -0.374522445915E+02   -0.13690E+02   -0.12528E+02  5152   0.606E+01
DAV:   4    -0.376284314580E+02   -0.17619E+00   -0.17587E+00  4912   0.825E+00
DAV:   5    -0.376299047046E+02   -0.14732E-02   -0.14732E-02  5096   0.594E-01    0.268E+01
DAV:   6    -0.321801232856E+02    0.54498E+01   -0.91692E+00  5080   0.470E+01    0.215E+00
DAV:   7    -0.319781420000E+02    0.20198E+00   -0.66919E-01  5376   0.912E+00    0.190E+00
DAV:   8    -0.319087493926E+02    0.69393E-01   -0.86416E-03  6024   0.780E-01    0.682E-01
DAV:   9    -0.318933984578E+02    0.15351E-01   -0.62678E-03  5240   0.501E-01    0.898E-02
DAV:  10    -0.318932328442E+02    0.16561E-03   -0.23910E-04  5056   0.975E-02    0.420E-02
DAV:  11    -0.318932012272E+02    0.31617E-04   -0.28018E-06  5424   0.203E-02    0.260E-02
DAV:  12    -0.318932016311E+02   -0.40389E-06   -0.76220E-07  3720   0.953E-03
   1 F= -.31893202E+02 E0= -.31895719E+02  d E =0.755296E-02
 writing wavefunctions
