unknown system                          
   1.00000000000000     
     3.609377    0.000000    0.000000
     0.000000    3.609377    0.000000
     0.000000    0.000000    3.609377
   Fe
     4
Direct
  0.000000  0.000000  0.000000
  0.500000  0.500000  0.000000
  0.500000  0.000000  0.500000
  0.000000  0.500000  0.500000
 
   32   32   32
 0.39644310670E+03 0.37684556502E+03 0.32391576744E+03 0.25204850375E+03 0.17733878597E+03
 0.11223446280E+03 0.63845010047E+02 0.34175553302E+02 0.20365219983E+02 0.15503655694E+02
 0.12766783264E+02 0.10940541785E+02 0.98230829739E+01 0.91737026628E+01 0.87641989835E+01
 0.84806894439E+01 0.83681576462E+01 0.84806894439E+01 0.87641989835E+01 0.91737026628E+01
 0.98230829739E+01 0.10940541785E+02 0.12766783264E+02 0.15503655694E+02 0.20365219983E+02
 0.34175553302E+02 0.63845010047E+02 0.11223446280E+03 0.17733878597E+03 0.25204850375E+03
 0.32391576744E+03 0.37684556502E+03 0.37684556502E+03 0.35820505607E+03 0.30783765707E+03
 0.23941066165E+03 0.16827759944E+03 0.10639076161E+03 0.60597023720E+02 0.32756984202E+02
 0.19962550266E+02 0.15416004536E+02 0.12752201954E+02 0.10980785730E+02 0.98965766660E+01
 0.92643510340E+01 0.88649065515E+01 0.85895366747E+01 0.84806894439E+01 0.85895366747E+01
 0.88649065515E+01 0.92643510340E+01 0.98965766660E+01 0.10980785730E+02 0.12752201954E+02
 0.15416004536E+02 0.19962550266E+02 0.32756984202E+02 0.60597023720E+02 0.10639076161E+03
 0.16827759944E+03 0.23941066165E+03 0.30783765707E+03 0.35820505607E+03 0.32391576744E+03
 0.30783765707E+03 0.26435076769E+03 0.20521215966E+03 0.14380122415E+03 0.90704788027E+02
 0.51997752039E+02 0.29099379259E+02 0.18968377830E+02 0.15168916583E+02 0.12713035299E+02
 0.11091570153E+02 0.10093865044E+02 0.95019548020E+01 0.91231872738E+01 0.88649065515E+01
 0.87641989835E+01 0.88649065515E+01 0.91231872738E+01 0.95019548020E+01 0.10093865044E+02
 0.11091570153E+02 0.12713035299E+02 0.15168916583E+02 0.18968377830E+02 0.29099379259E+02
 0.51997752039E+02 0.90704788027E+02 0.14380122415E+03 0.20521215966E+03 0.26435076769E+03
 0.30783765707E+03 0.25204850375E+03 0.23941066165E+03 0.20521215966E+03 0.15873767411E+03
 0.11073293810E+03 0.69837976899E+02 0.40909885231E+02 0.24648954693E+02 0.17843762426E+02
 0.14810911403E+02 0.12672604436E+02 0.11269517320E+02 0.10393497963E+02 0.98554242095E+01
 0.95019548020E+01 0.92643510340E+01 0.91737026628E+01 0.92643510340E+01 0.95019548020E+01
 0.98554242095E+01 0.10393497963E+02 0.11269517320E+02 0.12672604436E+02 0.14810911403E+02
 0.17843762426E+02 0.24648954693E+02 0.40909885231E+02 0.69837976899E+02 0.11073293810E+03
 0.15873767411E+03 0.20521215966E+03 0.23941066165E+03 0.17733878597E+03 0.16827759944E+03
 0.14380122415E+03 0.11073293810E+03 0.77068172529E+02 0.49231222573E+02 0.30559520538E+02
 0.20876239173E+02 0.16881658229E+02 0.14420990374E+02 0.12684957761E+02 0.11555635490E+02
 0.10843022325E+02 0.10393497963E+02 0.10093865044E+02 0.98965766660E+01 0.98230829739E+01
 0.98965766660E+01 0.10093865044E+02 0.10393497963E+02 0.10843022325E+02 0.11555635490E+02
 0.12684957761E+02 0.14420990374E+02 0.16881658229E+02 0.20876239173E+02 0.30559520538E+02
 0.49231222573E+02 0.77068172529E+02 0.11073293810E+03 0.14380122415E+03 0.16827759944E+03
 0.11223446280E+03 0.10639076161E+03 0.90704788027E+02 0.69837976899E+02 0.49231222573E+02
 0.33087494762E+02 0.23158779247E+02 0.18458854462E+02 0.15976037398E+02 0.14098809583E+02
 0.12830922745E+02 0.12035874462E+02 0.11555635490E+02 0.11269517320E+02 0.11091570153E+02
 0.10980785730E+02 0.10940541785E+02 0.10980785730E+02 0.11091570153E+02 0.11269517320E+02
 0.11555635490E+02 0.12035874462E+02 0.12830922745E+02 0.14098809583E+02 0.15976037398E+02
 0.18458854462E+02 0.23158779247E+02 0.33087494762E+02 0.49231222573E+02 0.69837976899E+02
 0.90704788027E+02 0.10639076161E+03 0.63845010047E+02 0.60597023720E+02 0.51997752039E+02
 0.40909885231E+02 0.30559520538E+02 0.23158779247E+02 0.19093858623E+02 0.16901793732E+02
 0.15176209560E+02 0.13953671927E+02 0.13212189016E+02 0.12830922745E+02 0.12684957761E+02
 0.12672604436E+02 0.12713035299E+02 0.12752201954E+02 0.12766783264E+02 0.12752201954E+02
 0.12713035299E+02 0.12672604436E+02 0.12684957761E+02 0.12830922745E+02 0.13212189016E+02
 0.13953671927E+02 0.15176209560E+02 0.16901793732E+02 0.19093858623E+02 0.23158779247E+02
 0.30559520538E+02 0.40909885231E+02 0.51997752039E+02 0.60597023720E+02 0.34175553302E+02
 0.32756984202E+02 0.29099379259E+02 0.24648954693E+02 0.20876239173E+02 0.18458854462E+02
 0.16901793732E+02 0.15583570148E+02 0.14626764863E+02 0.14097216181E+02 0.13953671927E+02
 0.14098809583E+02 0.14420990374E+02 0.14810911403E+02 0.15168916583E+02 0.15416004536E+02
 0.15503655694E+02 0.15416004536E+02 0.15168916583E+02 0.14810911403E+02 0.14420990374E+02
 0.14098809583E+02 0.13953671927E+02 0.14097216181E+02 0.14626764863E+02 0.15583570148E+02
 0.16901793732E+02 0.18458854462E+02 0.20876239173E+02 0.24648954693E+02 0.29099379259E+02
 0.32756984202E+02 0.20365219983E+02 0.19962550266E+02 0.18968377830E+02 0.17843762426E+02
 0.16881658229E+02 0.15976037398E+02 0.15176209560E+02 0.14626764863E+02 0.14431148176E+02
 0.14626764863E+02 0.15176209560E+02 0.15976037398E+02 0.16881658229E+02 0.17843762426E+02
 0.18968377830E+02 0.19962550266E+02 0.20365219983E+02 0.19962550266E+02 0.18968377830E+02
 0.17843762426E+02 0.16881658229E+02 0.15976037398E+02 0.15176209560E+02 0.14626764863E+02
 0.14431148176E+02 0.14626764863E+02 0.15176209560E+02 0.15976037398E+02 0.16881658229E+02
 0.17843762426E+02 0.18968377830E+02 0.19962550266E+02 0.15503655694E+02 0.15416004536E+02
 0.15168916583E+02 0.14810911403E+02 0.14420990374E+02 0.14098809583E+02 0.13953671927E+02
 0.14097216181E+02 0.14626764863E+02 0.15583570148E+02 0.16901793732E+02 0.18458854462E+02
 0.20876239173E+02 0.24648954693E+02 0.29099379259E+02 0.32756984202E+02 0.34175553302E+02
 0.32756984202E+02 0.29099379259E+02 0.24648954693E+02 0.20876239173E+02 0.18458854462E+02
 0.16901793732E+02 0.15583570148E+02 0.14626764863E+02 0.14097216181E+02 0.13953671927E+02
 0.14098809583E+02 0.14420990374E+02 0.14810911403E+02 0.15168916583E+02 0.15416004536E+02
 0.12766783264E+02 0.12752201954E+02 0.12713035299E+02 0.12672604436E+02 0.12684957761E+02
 0.12830922745E+02 0.13212189016E+02 0.13953671927E+02 0.15176209560E+02 0.16901793732E+02
 0.19093858623E+02 0.23158779247E+02 0.30559520538E+02 0.40909885231E+02 0.51997752039E+02
 0.60597023720E+02 0.63845010047E+02 0.60597023720E+02 0.51997752039E+02 0.40909885231E+02
 0.30559520538E+02 0.23158779247E+02 0.19093858623E+02 0.16901793732E+02 0.15176209560E+02
 0.13953671927E+02 0.13212189016E+02 0.12830922745E+02 0.12684957761E+02 0.12672604436E+02
 0.12713035299E+02 0.12752201954E+02 0.10940541785E+02 0.10980785730E+02 0.11091570153E+02
 0.11269517320E+02 0.11555635490E+02 0.12035874462E+02 0.12830922745E+02 0.14098809583E+02
 0.15976037398E+02 0.18458854462E+02 0.23158779247E+02 0.33087494762E+02 0.49231222573E+02
 0.69837976899E+02 0.90704788027E+02 0.10639076161E+03 0.11223446280E+03 0.10639076161E+03
 0.90704788027E+02 0.69837976899E+02 0.49231222573E+02 0.33087494762E+02 0.23158779247E+02
 0.18458854462E+02 0.15976037398E+02 0.14098809583E+02 0.12830922745E+02 0.12035874462E+02
 0.11555635490E+02 0.11269517320E+02 0.11091570153E+02 0.10980785730E+02 0.98230829739E+01
 0.98965766660E+01 0.10093865044E+02 0.10393497963E+02 0.10843022325E+02 0.11555635490E+02
 0.12684957761E+02 0.14420990374E+02 0.16881658229E+02 0.20876239173E+02 0.30559520538E+02
 0.49231222573E+02 0.77068172529E+02 0.11073293810E+03 0.14380122415E+03 0.16827759944E+03
 0.17733878597E+03 0.16827759944E+03 0.14380122415E+03 0.11073293810E+03 0.77068172529E+02
 0.49231222573E+02 0.30559520538E+02 0.20876239173E+02 0.16881658229E+02 0.14420990374E+02
 0.12684957761E+02 0.11555635490E+02 0.10843022325E+02 0.10393497963E+02 0.10093865044E+02
 0.98965766660E+01 0.91737026628E+01 0.92643510340E+01 0.95019548020E+01 0.98554242095E+01
 0.10393497963E+02 0.11269517320E+02 0.12672604436E+02 0.14810911403E+02 0.17843762426E+02
 0.24648954693E+02 0.40909885231E+02 0.69837976899E+02 0.11073293810E+03 0.15873767411E+03
 0.20521215966E+03 0.23941066165E+03 0.25204850375E+03 0.23941066165E+03 0.20521215966E+03
 0.15873767411E+03 0.11073293810E+03 0.69837976899E+02 0.40909885231E+02 0.24648954693E+02
 0.17843762426E+02 0.14810911403E+02 0.12672604436E+02 0.11269517320E+02 0.10393497963E+02
 0.98554242095E+01 0.95019548020E+01 0.92643510340E+01 0.87641989835E+01 0.88649065515E+01
 0.91231872738E+01 0.95019548020E+01 0.10093865044E+02 0.11091570153E+02 0.12713035299E+02
 0.15168916583E+02 0.18968377830E+02 0.29099379259E+02 0.51997752039E+02 0.90704788027E+02
 0.14380122415E+03 0.20521215966E+03 0.26435076769E+03 0.30783765707E+03 0.32391576744E+03
 0.30783765707E+03 0.26435076769E+03 0.20521215966E+03 0.14380122415E+03 0.90704788027E+02
 0.51997752039E+02 0.29099379259E+02 0.18968377830E+02 0.15168916583E+02 0.12713035299E+02
 0.11091570153E+02 0.10093865044E+02 0.95019548020E+01 0.91231872738E+01 0.88649065515E+01
 0.84806894439E+01 0.85895366747E+01 0.88649065515E+01 0.92643510340E+01 0.98965766660E+01
 0.10980785730E+02 0.12752201954E+02 0.15416004536E+02 0.19962550266E+02 0.32756984202E+02
 0.60597023720E+02 0.10639076161E+03 0.16827759944E+03 0.23941066165E+03 0.30783765707E+03
 0.35820505607E+03 0.37684556502E+03 0.35820505607E+03 0.30783765707E+03 0.23941066165E+03
 0.16827759944E+03 0.10639076161E+03 0.60597023720E+02 0.32756984202E+02 0.19962550266E+02
 0.15416004536E+02 0.12752201954E+02 0.10980785730E+02 0.98965766660E+01 0.92643510340E+01
 0.88649065515E+01 0.85895366747E+01 0.83681576462E+01 0.84806894439E+01 0.87641989835E+01
 0.91737026628E+01 0.98230829739E+01 0.10940541785E+02 0.12766783264E+02 0.15503655694E+02
 0.20365219983E+02 0.34175553302E+02 0.63845010047E+02 0.11223446280E+03 0.17733878597E+03
 0.25204850375E+03 0.32391576744E+03 0.37684556502E+03 0.39644310670E+03 0.37684556502E+03
 0.32391576744E+03 0.25204850375E+03 0.17733878597E+03 0.11223446280E+03 0.63845010047E+02
 0.34175553302E+02 0.20365219983E+02 0.15503655694E+02 0.12766783264E+02 0.10940541785E+02
 0.98230829739E+01 0.91737026628E+01 0.87641989835E+01 0.84806894439E+01 0.84806894439E+01
 0.85895366747E+01 0.88649065515E+01 0.92643510340E+01 0.98965766660E+01 0.10980785730E+02
 0.12752201954E+02 0.15416004536E+02 0.19962550266E+02 0.32756984202E+02 0.60597023720E+02
 0.10639076161E+03 0.16827759944E+03 0.23941066165E+03 0.30783765707E+03 0.35820505607E+03
 0.37684556502E+03 0.35820505607E+03 0.30783765707E+03 0.23941066165E+03 0.16827759944E+03
 0.10639076161E+03 0.60597023720E+02 0.32756984202E+02 0.19962550266E+02 0.15416004536E+02
 0.12752201954E+02 0.10980785730E+02 0.98965766660E+01 0.92643510340E+01 0.88649065515E+01
 0.85895366747E+01 0.87641989835E+01 0.88649065515E+01 0.91231872738E+01 0.95019548020E+01
 0.10093865044E+02 0.11091570153E+02 0.12713035299E+02 0.15168916583E+02 0.18968377830E+02
 0.29099379259E+02 0.51997752039E+02 0.90704788027E+02 0.14380122415E+03 0.20521215966E+03
 0.26435076769E+03 0.30783765707E+03 0.32391576744E+03 0.30783765707E+03 0.26435076769E+03
 0.20521215966E+03 0.14380122415E+03 0.90704788027E+02 0.51997752039E+02 0.29099379259E+02
 0.18968377830E+02 0.15168916583E+02 0.12713035299E+02 0.11091570153E+02 0.10093865044E+02
 0.95019548020E+01 0.91231872738E+01 0.88649065515E+01 0.91737026628E+01 0.92643510340E+01
 0.95019548020E+01 0.98554242095E+01 0.10393497963E+02 0.11269517320E+02 0.12672604436E+02
 0.14810911403E+02 0.17843762426E+02 0.24648954693E+02 0.40909885231E+02 0.69837976899E+02
 0.11073293810E+03 0.15873767411E+03 0.20521215966E+03 0.23941066165E+03 0.25204850375E+03
 0.23941066165E+03 0.20521215966E+03 0.15873767411E+03 0.11073293810E+03 0.69837976899E+02
 0.40909885231E+02 0.24648954693E+02 0.17843762426E+02 0.14810911403E+02 0.12672604436E+02
 0.11269517320E+02 0.10393497963E+02 0.98554242095E+01 0.95019548020E+01 0.92643510340E+01
 0.98230829739E+01 0.98965766660E+01 0.10093865044E+02 0.10393497963E+02 0.10843022325E+02
 0.11555635490E+02 0.12684957761E+02 0.14420990374E+02 0.16881658229E+02 0.20876239173E+02
 0.30559520538E+02 0.49231222573E+02 0.77068172529E+02 0.11073293810E+03 0.14380122415E+03
 0.16827759944E+03 0.17733878597E+03 0.16827759944E+03 0.14380122415E+03 0.11073293810E+03
 0.77068172529E+02 0.49231222573E+02 0.30559520538E+02 0.20876239173E+02 0.16881658229E+02
 0.14420990374E+02 0.12684957761E+02 0.11555635490E+02 0.10843022325E+02 0.10393497963E+02
 0.10093865044E+02 0.98965766660E+01 0.10940541785E+02 0.10980785730E+02 0.11091570153E+02
 0.11269517320E+02 0.11555635490E+02 0.12035874462E+02 0.12830922745E+02 0.14098809583E+02
 0.15976037398E+02 0.18458854462E+02 0.23158779247E+02 0.33087494762E+02 0.49231222573E+02
 0.69837976899E+02 0.90704788027E+02 0.10639076161E+03 0.11223446280E+03 0.10639076161E+03
 0.90704788027E+02 0.69837976899E+02 0.49231222573E+02 0.33087494762E+02 0.23158779247E+02
 0.18458854462E+02 0.15976037398E+02 0.14098809583E+02 0.12830922745E+02 0.12035874462E+02
 0.11555635490E+02 0.11269517320E+02 0.11091570153E+02 0.10980785730E+02 0.12766783264E+02
 0.12752201954E+02 0.12713035299E+02 0.12672604436E+02 0.12684957761E+02 0.12830922745E+02
 0.13212189016E+02 0.13953671927E+02 0.15176209560E+02 0.16901793732E+02 0.19093858623E+02
 0.23158779247E+02 0.30559520538E+02 0.40909885231E+02 0.51997752039E+02 0.60597023720E+02
 0.63845010047E+02 0.60597023720E+02 0.51997752039E+02 0.40909885231E+02 0.30559520538E+02
 0.23158779247E+02 0.19093858623E+02 0.16901793732E+02 0.15176209560E+02 0.13953671927E+02
 0.13212189016E+02 0.12830922745E+02 0.12684957761E+02 0.12672604436E+02 0.12713035299E+02
 0.12752201954E+02 0.15503655694E+02 0.15416004536E+02 0.15168916583E+02 0.14810911403E+02
 0.14420990374E+02 0.14098809583E+02 0.13953671927E+02 0.14097216181E+02 0.14626764863E+02
 0.15583570148E+02 0.16901793732E+02 0.18458854462E+02 0.20876239173E+02 0.24648954693E+02
 0.29099379259E+02 0.32756984202E+02 0.34175553302E+02 0.32756984202E+02 0.29099379259E+02
 0.24648954693E+02 0.20876239173E+02 0.18458854462E+02 0.16901793732E+02 0.15583570148E+02
 0.14626764863E+02 0.14097216181E+02 0.13953671927E+02 0.14098809583E+02 0.14420990374E+02
 0.14810911403E+02 0.15168916583E+02 0.15416004536E+02 0.20365219983E+02 0.19962550266E+02
 0.18968377830E+02 0.17843762426E+02 0.16881658229E+02 0.15976037398E+02 0.15176209560E+02
 0.14626764863E+02 0.14431148176E+02 0.14626764863E+02 0.15176209560E+02 0.15976037398E+02
 0.16881658229E+02 0.17843762426E+02 0.18968377830E+02 0.19962550266E+02 0.20365219983E+02
 0.19962550266E+02 0.18968377830E+02 0.17843762426E+02 0.16881658229E+02 0.15976037398E+02
 0.15176209560E+02 0.14626764863E+02 0.14431148176E+02 0.14626764863E+02 0.15176209560E+02
 0.15976037398E+02 0.16881658229E+02 0.17843762426E+02 0.18968377830E+02 0.19962550266E+02
 0.34175553302E+02 0.32756984202E+02 0.29099379259E+02 0.24648954693E+02 0.20876239173E+02
 0.18458854462E+02 0.16901793732E+02 0.15583570148E+02 0.14626764863E+02 0.14097216181E+02
 0.13953671927E+02 0.14098809583E+02 0.14420990374E+02 0.14810911403E+02 0.15168916583E+02
 0.15416004536E+02 0.15503655694E+02 0.15416004536E+02 0.15168916583E+02 0.14810911403E+02
 0.14420990374E+02 0.14098809583E+02 0.13953671927E+02 0.14097216181E+02 0.14626764863E+02
 0.15583570148E+02 0.16901793732E+02 0.18458854462E+02 0.20876239173E+02 0.24648954693E+02
 0.29099379259E+02 0.32756984202E+02 0.63845010047E+02 0.60597023720E+02 0.51997752039E+02
 0.40909885231E+02 0.30559520538E+02 0.23158779247E+02 0.19093858623E+02 0.16901793732E+02
 0.15176209560E+02 0.13953671927E+02 0.13212189016E+02 0.12830922745E+02 0.12684957761E+02
 0.12672604436E+02 0.12713035299E+02 0.12752201954E+02 0.12766783264E+02 0.12752201954E+02
 0.12713035299E+02 0.12672604436E+02 0.12684957761E+02 0.12830922745E+02 0.13212189016E+02
 0.13953671927E+02 0.15176209560E+02 0.16901793732E+02 0.19093858623E+02 0.23158779247E+02
 0.30559520538E+02 0.40909885231E+02 0.51997752039E+02 0.60597023720E+02 0.11223446280E+03
 0.10639076161E+03 0.90704788027E+02 0.69837976899E+02 0.49231222573E+02 0.33087494762E+02
 0.23158779247E+02 0.18458854462E+02 0.15976037398E+02 0.14098809583E+02 0.12830922745E+02
 0.12035874462E+02 0.11555635490E+02 0.11269517320E+02 0.11091570153E+02 0.10980785730E+02
 0.10940541785E+02 0.10980785730E+02 0.11091570153E+02 0.11269517320E+02 0.11555635490E+02
 0.12035874462E+02 0.12830922745E+02 0.14098809583E+02 0.15976037398E+02 0.18458854462E+02
 0.23158779247E+02 0.33087494762E+02 0.49231222573E+02 0.69837976899E+02 0.90704788027E+02
 0.10639076161E+03 0.17733878597E+03 0.16827759944E+03 0.14380122415E+03 0.11073293810E+03
 0.77068172529E+02 0.49231222573E+02 0.30559520538E+02 0.20876239173E+02 0.16881658229E+02
 0.14420990374E+02 0.12684957761E+02 0.11555635490E+02 0.10843022325E+02 0.10393497963E+02
 0.10093865044E+02 0.98965766660E+01 0.98230829739E+01 0.98965766660E+01 0.10093865044E+02
 0.10393497963E+02 0.10843022325E+02 0.11555635490E+02 0.12684957761E+02 0.14420990374E+02
 0.16881658229E+02 0.20876239173E+02 0.30559520538E+02 0.49231222573E+02 0.77068172529E+02
 0.11073293810E+03 0.14380122415E+03 0.16827759944E+03 0.25204850375E+03 0.23941066165E+03
 0.20521215966E+03 0.15873767411E+03 0.11073293810E+03 0.69837976899E+02 0.40909885231E+02
 0.24648954693E+02 0.17843762426E+02 0.14810911403E+02 0.12672604436E+02 0.11269517320E+02
 0.10393497963E+02 0.98554242095E+01 0.95019548020E+01 0.92643510340E+01 0.91737026628E+01
 0.92643510340E+01 0.95019548020E+01 0.98554242095E+01 0.10393497963E+02 0.11269517320E+02
 0.12672604436E+02 0.14810911403E+02 0.17843762426E+02 0.24648954693E+02 0.40909885231E+02
 0.69837976899E+02 0.11073293810E+03 0.15873767411E+03 0.20521215966E+03 0.23941066165E+03
 0.32391576744E+03 0.30783765707E+03 0.26435076769E+03 0.20521215966E+03 0.14380122415E+03
 0.90704788027E+02 0.51997752039E+02 0.29099379259E+02 0.18968377830E+02 0.15168916583E+02
 0.12713035299E+02 0.11091570153E+02 0.10093865044E+02 0.95019548020E+01 0.91231872738E+01
 0.88649065515E+01 0.87641989835E+01 0.88649065515E+01 0.91231872738E+01 0.95019548020E+01
 0.10093865044E+02 0.11091570153E+02 0.12713035299E+02 0.15168916583E+02 0.18968377830E+02
 0.29099379259E+02 0.51997752039E+02 0.90704788027E+02 0.14380122415E+03 0.20521215966E+03
 0.26435076769E+03 0.30783765707E+03 0.37684556502E+03 0.35820505607E+03 0.30783765707E+03
 0.23941066165E+03 0.16827759944E+03 0.10639076161E+03 0.60597023720E+02 0.32756984202E+02
 0.19962550266E+02 0.15416004536E+02 0.12752201954E+02 0.10980785730E+02 0.98965766660E+01
 0.92643510340E+01 0.88649065515E+01 0.85895366747E+01 0.84806894439E+01 0.85895366747E+01
 0.88649065515E+01 0.92643510340E+01 0.98965766660E+01 0.10980785730E+02 0.12752201954E+02
 0.15416004536E+02 0.19962550266E+02 0.32756984202E+02 0.60597023720E+02 0.10639076161E+03
 0.16827759944E+03 0.23941066165E+03 0.30783765707E+03 0.35820505607E+03 0.37684556502E+03
 0.35820505607E+03 0.30783765707E+03 0.23941066165E+03 0.16827759944E+03 0.10639076161E+03
 0.60597023720E+02 0.32756984202E+02 0.19962550266E+02 0.15416004536E+02 0.12752201954E+02
 0.10980785730E+02 0.98965766660E+01 0.92643510340E+01 0.88649065515E+01 0.85895366747E+01
 0.84806894439E+01 0.85895366747E+01 0.88649065515E+01 0.92643510340E+01 0.98965766660E+01
 0.10980785730E+02 0.12752201954E+02 0.15416004536E+02 0.19962550266E+02 0.32756984202E+02
 0.60597023720E+02 0.10639076161E+03 0.16827759944E+03 0.23941066165E+03 0.30783765707E+03
 0.35820505607E+03 0.35820505607E+03 0.34047170154E+03 0.29253638626E+03 0.22738281232E+03
 0.15966302047E+03 0.10085275556E+03 0.57538744442E+02 0.31436503337E+02 0.19593199227E+02
 0.15327702774E+02 0.12736438344E+02 0.11018856993E+02 0.99672189950E+01 0.93518477043E+01
 0.89622818411E+01 0.86948239067E+01 0.85895366747E+01 0.86948239067E+01 0.89622818411E+01
 0.93518477043E+01 0.99672189950E+01 0.11018856993E+02 0.12736438344E+02 0.15327702774E+02
 0.19593199227E+02 0.31436503337E+02 0.57538744442E+02 0.10085275556E+03 0.15966302047E+03
 0.22738281232E+03 0.29253638626E+03 0.34047170154E+03 0.30783765707E+03 0.29253638626E+03
 0.25114010294E+03 0.19483463573E+03 0.13640061279E+03 0.85998436565E+02 0.49452234993E+02
 0.28038725915E+02 0.18681278840E+02 0.15079602602E+02 0.12694432089E+02 0.11124128056E+02
 0.10157416468E+02 0.95819402278E+01 0.92129677616E+01 0.89622818411E+01 0.88649065515E+01
 0.89622818411E+01 0.92129677616E+01 0.95819402278E+01 0.10157416468E+02 0.11124128056E+02
 0.12694432089E+02 0.15079602602E+02 0.18681278840E+02 0.28038725915E+02 0.49452234993E+02
 0.85998436565E+02 0.13640061279E+03 0.19483463573E+03 0.25114010294E+03 0.29253638626E+03
 0.23941066165E+03 0.22738281232E+03 0.19483463573E+03 0.15061677900E+03 0.10500324236E+03
 0.66274035507E+02 0.39056357376E+02 0.23922047043E+02 0.17643471112E+02 0.14721950242E+02
 0.12650358633E+02 0.11294268964E+02 0.10447143175E+02 0.99252839402E+01 0.95819402278E+01
 0.93518477043E+01 0.92643510340E+01 0.93518477043E+01 0.95819402278E+01 0.99252839402E+01
 0.10447143175E+02 0.11294268964E+02 0.12650358633E+02 0.14721950242E+02 0.17643471112E+02
 0.23922047043E+02 0.39056357376E+02 0.66274035507E+02 0.10500324236E+03 0.15061677900E+03
 0.19483463573E+03 0.22738281232E+03 0.16827759944E+03 0.15966302047E+03 0.13640061279E+03
 0.10500324236E+03 0.73113131002E+02 0.46865471743E+02 0.29403677790E+02 0.20452365191E+02
 0.16722819767E+02 0.14334212882E+02 0.12657350057E+02 0.11568703842E+02 0.10881531803E+02
 0.10447143175E+02 0.10157416468E+02 0.99672189950E+01 0.98965766660E+01 0.99672189950E+01
 0.10157416468E+02 0.10447143175E+02 0.10881531803E+02 0.11568703842E+02 0.12657350057E+02
 0.14334212882E+02 0.16722819767E+02 0.20452365191E+02 0.29403677790E+02 0.46865471743E+02
 0.73113131002E+02 0.10500324236E+03 0.13640061279E+03 0.15966302047E+03 0.10639076161E+03
 0.10085275556E+03 0.85998436565E+02 0.66274035507E+02 0.46865471743E+02 0.31757763696E+02
 0.22558294574E+02 0.18223288800E+02 0.15829157476E+02 0.14014238847E+02 0.12793432481E+02
 0.12029618156E+02 0.11568703842E+02 0.11294268964E+02 0.11124128056E+02 0.11018856993E+02
 0.10980785730E+02 0.11018856993E+02 0.11124128056E+02 0.11294268964E+02 0.11568703842E+02
 0.12029618156E+02 0.12793432481E+02 0.14014238847E+02 0.15829157476E+02 0.18223288800E+02
 0.22558294574E+02 0.31757763696E+02 0.46865471743E+02 0.66274035507E+02 0.85998436565E+02
 0.10085275556E+03 0.60597023720E+02 0.57538744442E+02 0.49452234993E+02 0.39056357376E+02
 0.29403677790E+02 0.22558294574E+02 0.18817090961E+02 0.16718147640E+02 0.15045584625E+02
 0.13867644405E+02 0.13156558589E+02 0.12793432481E+02 0.12657350057E+02 0.12650358633E+02
 0.12694432089E+02 0.12736438344E+02 0.12752201954E+02 0.12736438344E+02 0.12694432089E+02
 0.12650358633E+02 0.12657350057E+02 0.12793432481E+02 0.13156558589E+02 0.13867644405E+02
 0.15045584625E+02 0.16718147640E+02 0.18817090961E+02 0.22558294574E+02 0.29403677790E+02
 0.39056357376E+02 0.49452234993E+02 0.57538744442E+02 0.32756984202E+02 0.31436503337E+02
 0.28038725915E+02 0.23922047043E+02 0.20452365191E+02 0.18223288800E+02 0.16718147640E+02
 0.15434980470E+02 0.14510009434E+02 0.14001586578E+02 0.13867644405E+02 0.14014238847E+02
 0.14334212882E+02 0.14721950242E+02 0.15079602602E+02 0.15327702774E+02 0.15416004536E+02
 0.15327702774E+02 0.15079602602E+02 0.14721950242E+02 0.14334212882E+02 0.14014238847E+02
 0.13867644405E+02 0.14001586578E+02 0.14510009434E+02 0.15434980470E+02 0.16718147640E+02
 0.18223288800E+02 0.20452365191E+02 0.23922047043E+02 0.28038725915E+02 0.31436503337E+02
 0.19962550266E+02 0.19593199227E+02 0.18681278840E+02 0.17643471112E+02 0.16722819767E+02
 0.15829157476E+02 0.15045584625E+02 0.14510009434E+02 0.14319819407E+02 0.14510009434E+02
 0.15045584625E+02 0.15829157476E+02 0.16722819767E+02 0.17643471112E+02 0.18681278840E+02
 0.19593199227E+02 0.19962550266E+02 0.19593199227E+02 0.18681278840E+02 0.17643471112E+02
 0.16722819767E+02 0.15829157476E+02 0.15045584625E+02 0.14510009434E+02 0.14319819407E+02
 0.14510009434E+02 0.15045584625E+02 0.15829157476E+02 0.16722819767E+02 0.17643471112E+02
 0.18681278840E+02 0.19593199227E+02 0.15416004536E+02 0.15327702774E+02 0.15079602602E+02
 0.14721950242E+02 0.14334212882E+02 0.14014238847E+02 0.13867644405E+02 0.14001586578E+02
 0.14510009434E+02 0.15434980470E+02 0.16718147640E+02 0.18223288800E+02 0.20452365191E+02
 0.23922047043E+02 0.28038725915E+02 0.31436503337E+02 0.32756984202E+02 0.31436503337E+02
 0.28038725915E+02 0.23922047043E+02 0.20452365191E+02 0.18223288800E+02 0.16718147640E+02
 0.15434980470E+02 0.14510009434E+02 0.14001586578E+02 0.13867644405E+02 0.14014238847E+02
 0.14334212882E+02 0.14721950242E+02 0.15079602602E+02 0.15327702774E+02 0.12752201954E+02
 0.12736438344E+02 0.12694432089E+02 0.12650358633E+02 0.12657350057E+02 0.12793432481E+02
 0.13156558589E+02 0.13867644405E+02 0.15045584625E+02 0.16718147640E+02 0.18817090961E+02
 0.22558294574E+02 0.29403677790E+02 0.39056357376E+02 0.49452234993E+02 0.57538744442E+02
 0.60597023720E+02 0.57538744442E+02 0.49452234993E+02 0.39056357376E+02 0.29403677790E+02
 0.22558294574E+02 0.18817090961E+02 0.16718147640E+02 0.15045584625E+02 0.13867644405E+02
 0.13156558589E+02 0.12793432481E+02 0.12657350057E+02 0.12650358633E+02 0.12694432089E+02
 0.12736438344E+02 0.10980785730E+02 0.11018856993E+02 0.11124128056E+02 0.11294268964E+02
 0.11568703842E+02 0.12029618156E+02 0.12793432481E+02 0.14014238847E+02 0.15829157476E+02
 0.18223288800E+02 0.22558294574E+02 0.31757763696E+02 0.46865471743E+02 0.66274035507E+02
 0.85998436565E+02 0.10085275556E+03 0.10639076161E+03 0.10085275556E+03 0.85998436565E+02
 0.66274035507E+02 0.46865471743E+02 0.31757763696E+02 0.22558294574E+02 0.18223288800E+02
 0.15829157476E+02 0.14014238847E+02 0.12793432481E+02 0.12029618156E+02 0.11568703842E+02
 0.11294268964E+02 0.11124128056E+02 0.11018856993E+02 0.98965766660E+01 0.99672189950E+01
 0.10157416468E+02 0.10447143175E+02 0.10881531803E+02 0.11568703842E+02 0.12657350057E+02
 0.14334212882E+02 0.16722819767E+02 0.20452365191E+02 0.29403677790E+02 0.46865471743E+02
 0.73113131002E+02 0.10500324236E+03 0.13640061279E+03 0.15966302047E+03 0.16827759944E+03
 0.15966302047E+03 0.13640061279E+03 0.10500324236E+03 0.73113131002E+02 0.46865471743E+02
 0.29403677790E+02 0.20452365191E+02 0.16722819767E+02 0.14334212882E+02 0.12657350057E+02
 0.11568703842E+02 0.10881531803E+02 0.10447143175E+02 0.10157416468E+02 0.99672189950E+01
 0.92643510340E+01 0.93518477043E+01 0.95819402278E+01 0.99252839402E+01 0.10447143175E+02
 0.11294268964E+02 0.12650358633E+02 0.14721950242E+02 0.17643471112E+02 0.23922047043E+02
 0.39056357376E+02 0.66274035507E+02 0.10500324236E+03 0.15061677900E+03 0.19483463573E+03
 0.22738281232E+03 0.23941066165E+03 0.22738281232E+03 0.19483463573E+03 0.15061677900E+03
 0.10500324236E+03 0.66274035507E+02 0.39056357376E+02 0.23922047043E+02 0.17643471112E+02
 0.14721950242E+02 0.12650358633E+02 0.11294268964E+02 0.10447143175E+02 0.99252839402E+01
 0.95819402278E+01 0.93518477043E+01 0.88649065515E+01 0.89622818411E+01 0.92129677616E+01
 0.95819402278E+01 0.10157416468E+02 0.11124128056E+02 0.12694432089E+02 0.15079602602E+02
 0.18681278840E+02 0.28038725915E+02 0.49452234993E+02 0.85998436565E+02 0.13640061279E+03
 0.19483463573E+03 0.25114010294E+03 0.29253638626E+03 0.30783765707E+03 0.29253638626E+03
 0.25114010294E+03 0.19483463573E+03 0.13640061279E+03 0.85998436565E+02 0.49452234993E+02
 0.28038725915E+02 0.18681278840E+02 0.15079602602E+02 0.12694432089E+02 0.11124128056E+02
 0.10157416468E+02 0.95819402278E+01 0.92129677616E+01 0.89622818411E+01 0.85895366747E+01
 0.86948239067E+01 0.89622818411E+01 0.93518477043E+01 0.99672189950E+01 0.11018856993E+02
 0.12736438344E+02 0.15327702774E+02 0.19593199227E+02 0.31436503337E+02 0.57538744442E+02
 0.10085275556E+03 0.15966302047E+03 0.22738281232E+03 0.29253638626E+03 0.34047170154E+03
 0.35820505607E+03 0.34047170154E+03 0.29253638626E+03 0.22738281232E+03 0.15966302047E+03
 0.10085275556E+03 0.57538744442E+02 0.31436503337E+02 0.19593199227E+02 0.15327702774E+02
 0.12736438344E+02 0.11018856993E+02 0.99672189950E+01 0.93518477043E+01 0.89622818411E+01
 0.86948239067E+01 0.84806894439E+01 0.85895366747E+01 0.88649065515E+01 0.92643510340E+01
 0.98965766660E+01 0.10980785730E+02 0.12752201954E+02 0.15416004536E+02 0.19962550266E+02
 0.32756984202E+02 0.60597023720E+02 0.10639076161E+03 0.16827759944E+03 0.23941066165E+03
 0.30783765707E+03 0.35820505607E+03 0.37684556502E+03 0.35820505607E+03 0.30783765707E+03
 0.23941066165E+03 0.16827759944E+03 0.10639076161E+03 0.60597023720E+02 0.32756984202E+02
 0.19962550266E+02 0.15416004536E+02 0.12752201954E+02 0.10980785730E+02 0.98965766660E+01
 0.92643510340E+01 0.88649065515E+01 0.85895366747E+01 0.85895366747E+01 0.86948239067E+01
 0.89622818411E+01 0.93518477043E+01 0.99672189950E+01 0.11018856993E+02 0.12736438344E+02
 0.15327702774E+02 0.19593199227E+02 0.31436503337E+02 0.57538744442E+02 0.10085275556E+03
 0.15966302047E+03 0.22738281232E+03 0.29253638626E+03 0.34047170154E+03 0.35820505607E+03
 0.34047170154E+03 0.29253638626E+03 0.22738281232E+03 0.15966302047E+03 0.10085275556E+03
 0.57538744442E+02 0.31436503337E+02 0.19593199227E+02 0.15327702774E+02 0.12736438344E+02
 0.11018856993E+02 0.99672189950E+01 0.93518477043E+01 0.89622818411E+01 0.86948239067E+01
 0.88649065515E+01 0.89622818411E+01 0.92129677616E+01 0.95819402278E+01 0.10157416468E+02
 0.11124128056E+02 0.12694432089E+02 0.15079602602E+02 0.18681278840E+02 0.28038725915E+02
 0.49452234993E+02 0.85998436565E+02 0.13640061279E+03 0.19483463573E+03 0.25114010294E+03
 0.29253638626E+03 0.30783765707E+03 0.29253638626E+03 0.25114010294E+03 0.19483463573E+03
 0.13640061279E+03 0.85998436565E+02 0.49452234993E+02 0.28038725915E+02 0.18681278840E+02