    4    4    1    1
  0.1175539E+02  0.3609377E-09  0.3609377E-09  0.3609377E-09  0.5000000E-15
  1.000000000000000E-004
  CAR 
 unknown system                          
     32     56     40
 
  0.0000000E+00  0.0000000E+00  0.0000000E+00  0.7513148E-03
    1       -2.703744   1.000000
    2        1.278748   1.000000
    3        1.278748   1.000000
    4        1.278748   1.000000
    5        1.915184   1.000000
    6        1.915184   1.000000
    7        1.915184   1.000000
    8        4.017464   1.000000
    9        4.017464   1.000000
   10        4.017464   1.000000
   11        5.283832   0.740572
   12        5.283832   0.740572
   13        6.127309  -0.000000
   14        6.127309  -0.000000
   15        6.127309  -0.000000
   16        6.371836  -0.000000
   17        6.371836  -0.000000
   18        6.371836  -0.000000
   19        6.371836  -0.000000
   20        6.371836  -0.000000
   21        6.371836  -0.000000
   22        8.282342  -0.000000
   23        8.282342  -0.000000
   24        8.282342  -0.000000
   25       15.635163   0.000000
   26       15.635163   0.000000
   27       15.635163   0.000000
   28       20.146183   0.000000
   29       20.146183   0.000000
   30       20.146183   0.000000
   31       20.146183   0.000000
   32       20.146183   0.000000
   33       20.146183   0.000000
   34       25.093725   0.000000
   35       25.093725   0.000000
   36       25.093725   0.000000
   37       27.505284   0.000000
   38       28.960205   0.000000
   39       28.960205   0.000000
   40       28.960205   0.000000
 
  0.9090909E-01  0.0000000E+00  0.0000000E+00  0.4507889E-02
    1       -2.598310   1.000000
    2        1.292665   1.000000
    3        1.340473   1.000000
    4        1.340473   1.000000
    5        1.953226   1.000000
    6        1.957289   1.000000
    7        1.957289   1.000000
    8        3.969530   1.000000
    9        4.052666   1.000000
   10        4.052666   1.000000
   11        5.239956   0.879764
   12        5.300249   0.678482
   13        6.004901  -0.000015
   14        6.004901  -0.000015
   15        6.068034  -0.000002
   16        6.068034  -0.000002
   17        6.109272  -0.000000
   18        6.303282  -0.000000
   19        6.303282  -0.000000
   20        6.370874  -0.000000
   21        6.370874  -0.000000
   22        7.819535  -0.000000
   23        8.727491  -0.000000
   24        8.727491  -0.000000
   25       15.641530   0.000000
   26       15.641530   0.000000
   27       16.255816   0.000000
   28       19.625525   0.000000
   29       19.625525   0.000000
   30       19.847092   0.000000
   31       19.847092   0.000000
   32       20.319192   0.000000
   33       20.319192   0.000000
   34       25.111272   0.000000
   35       25.710228   0.000000
   36       25.710228   0.000000
   37       27.373011   0.000000
   38       28.994885   0.000000
   39       29.501852   0.000000
   40       29.501852   0.000000
 
  0.1818182E+00  0.0000000E+00  0.0000000E+00  0.4507889E-02
    1       -2.286459   1.000000
    2        1.311334   1.000000
    3        1.515774   1.000000
    4        1.515774   1.000000
    5        2.065195   1.000000
    6        2.083941   1.000000
    7        2.083941   1.000000
    8        3.830994   1.000000
    9        4.157225   1.000000
   10        4.157225   1.000000
   11        5.112978   1.034579
   12        5.327845   0.566157
   13        5.327845   0.566157
   14        5.348317   0.479766
   15        5.901444  -0.000289
   16        5.901444  -0.000289
   17        6.057791  -0.000003
   18        6.114671  -0.000000
   19        6.114671  -0.000000
   20        6.371051  -0.000000
   21        6.371051  -0.000000
   22        6.787489  -0.000000
   23        9.642349  -0.000000
   24        9.642349  -0.000000
   25       15.676502   0.000000
   26       15.676502   0.000000
   27       17.783059   0.000000
   28       18.483467   0.000000
   29       18.483467   0.000000
   30       19.149215   0.000000
   31       19.149215   0.000000
   32       20.823994   0.000000
   33       20.823994   0.000000
   34       25.172288   0.000000
   35       27.043687   0.000000
   36       27.155504   0.000000
   37       27.155504   0.000000
   38       29.123662   0.000000
   39       29.888451   0.000000
   40       29.888505   0.000000
 
  0.2727273E+00  0.0000000E+00  0.0000000E+00  0.4507889E-02
    1       -1.782472   1.000000
    2        1.255569   1.000000
    3        1.772132   1.000000
    4        1.772132   1.000000
    5        2.244533   1.000000
    6        2.295905   1.000000
    7        2.295905   1.000000
    8        3.617103   1.000000
    9        4.328664   1.000000
   10        4.328664   1.000000
   11        4.638595   1.000004
   12        4.638595   1.000004
   13        4.924069   1.005765
   14        5.424542   0.186414
   15        5.653926  -0.025288
   16        5.653926  -0.025288
   17        5.700978  -0.014928
   18        5.836620  -0.001349
   19        5.836620  -0.001349
   20        5.976660  -0.000036
   21        6.371397  -0.000000
   22        6.371397  -0.000000
   23       10.725201  -0.000000
   24       10.725201  -0.000000
   25       15.741211   0.000000
   26       15.741211   0.000000
   27       17.155765   0.000000
   28       17.155765   0.000000
   29       18.374891   0.000000
   30       18.374891   0.000000
   31       19.738401   0.000000
   32       21.622686   0.000000
   33       21.622686   0.000000
   34       25.278319   0.000000
   35       26.642016   0.000000
   36       28.343342   0.000000
   37       28.343342   0.000000
   38       28.784682   0.000000
   39       28.995210   0.000000
   40       28.995210   0.000000
 
  0.3636364E+00  0.0000000E+00  0.0000000E+00  0.4507889E-02
    1       -1.116206   1.000000
    2        0.985812   1.000000
    3        2.045809   1.000000
    4        2.045809   1.000000
    5        2.480238   1.000000
    6        2.594130   1.000000
    7        2.594130   1.000000
    8        3.349784   1.000000
    9        4.006401   1.000000
   10        4.006401   1.000000
   11        4.561288   1.000000
   12        4.561288   1.000000
   13        4.710904   1.000036
   14        4.900800   1.003776
   15        5.385853   0.325300
   16        5.385853   0.325300
   17        5.509154   0.003108
   18        5.509154   0.003108
   19        5.523277  -0.011174
   20        5.873490  -0.000578
   21        6.371792  -0.000000
   22        6.371792  -0.000000
   23       11.903589   0.000000
   24       11.903589   0.000000
   25       15.795051   0.000000
   26       15.795051   0.000000
   27       15.834202   0.000000
   28       15.834202   0.000000
   29       17.731597   0.000000
   30       17.731597   0.000000
   31       21.838717   0.000000
   32       22.666503   0.000000
   33       22.666503   0.000000
   34       25.434807   0.000000
   35       26.251517   0.000000
   36       26.789127   0.000000
   37       26.789127   0.000000
   38       27.346803   0.000000
   39       29.901984   0.000000
   40       31.085085   0.000000
 
  0.4545455E+00  0.0000000E+00  0.0000000E+00  0.4507889E-02
    1       -0.345889   1.000000
    2        0.414502   1.000000
    3        2.234339   1.000000
    4        2.234339   1.000000
    5        2.756826   1.000000
    6        2.979214   1.000000
    7        2.979214   1.000000
    8        3.054549   1.000000
    9        3.450771   1.000000
   10        3.450771   1.000000
   11        4.543488   1.000000
   12        4.546183   1.000000
   13        4.846531   1.001238
   14        4.846531   1.001238
   15        5.169408   1.005976
   16        5.169408   1.005976
   17        5.199031   0.967488
   18        5.199031   0.967488
   19        5.637358  -0.029004
   20        5.757166  -0.006375
   21        6.371843  -0.000000
   22        6.371843  -0.000000
   23       13.149437   0.000000
   24       13.149437   0.000000
   25       14.451579   0.000000
   26       14.451579   0.000000
   27       15.920815   0.000000
   28       15.920815   0.000000
   29       17.350693   0.000000
   30       17.350693   0.000000
   31       23.899855   0.000000
   32       23.907016   0.000000
   33       23.907016   0.000000
   34       25.297680   0.000000
   35       25.297680   0.000000
   36       25.648243   0.000000
   37       25.752743   0.000000
   38       25.924200   0.000000
   39       30.790171   0.000000
   40       32.208687   0.000000
 
  0.9090909E-01  0.9090909E-01  0.0000000E+00  0.9015778E-02
    1       -2.493781   1.000000
    2        1.355538   1.000000
    3        1.355538   1.000000
    4        1.400641   1.000000
    5        1.994435   1.000000
    6        1.994435   1.000000
    7        1.997761   1.000000
    8        3.941240   1.000000
    9        4.069469   1.000000
   10        4.083390   1.000000
   11        5.227094   0.911866
   12        5.289602   0.719263
   13        5.769448  -0.005145
   14        5.882442  -0.000465
   15        5.882442  -0.000465
   16        6.013168  -0.000012
   17        6.078839  -0.000001
   18        6.078839  -0.000001
   19        6.303237  -0.000000
   20        6.303237  -0.000000
   21        6.328895  -0.000000
   22        8.280155  -0.000000
   23        8.280155  -0.000000
   24        9.084609  -0.000000
   25       15.646258   0.000000
   26       16.277415   0.000000
   27       16.277415   0.000000
   28       18.524211   0.000000
   29       19.786026   0.000000
   30       19.786026   0.000000
   31       20.012548   0.000000
   32       20.012548   0.000000
   33       20.484197   0.000000
   34       25.743353   0.000000
   35       25.743353   0.000000
   36       25.873784   0.000000
   37       27.144861   0.000000
   38       29.543195   0.000000
   39       29.543195   0.000000
   40       29.902700   0.000000
 
  0.1818182E+00  0.9090909E-01  0.0000000E+00  0.1803156E-01
    1       -2.184357   1.000000
    2        1.377597   1.000000
    3        1.534420   1.000000
    4        1.571756   1.000000
    5        2.103726   1.000000
    6        2.118349   1.000000
    7        2.118964   1.000000
    8        3.816849   1.000000
    9        4.163994   1.000000
   10        4.173575   1.000000
   11        5.118560   1.033704
   12        5.209165   0.949656
   13        5.209976   0.948121
   14        5.334512   0.538130
   15        5.585788  -0.035429
   16        5.855622  -0.000880
   17        5.906610  -0.000253
   18        6.031405  -0.000006
   19        6.114228  -0.000000
   20        6.303055  -0.000000
   21        6.305852  -0.000000
   22        7.338304  -0.000000
   23        9.160333  -0.000000
   24        9.906198  -0.000000
   25       15.642214   0.000000
   26       16.349038   0.000000
   27       17.256341   0.000000
   28       17.815752   0.000000
   29       18.629994   0.000000
   30       19.300913   0.000000
   31       20.250595   0.000000
   32       20.380491   0.000000
   33       20.499628   0.000000
   34       25.847675   0.000000
   35       26.576596   0.000000
   36       26.748216   0.000000
   37       27.205788   0.000000
   38       28.406305   0.000000
   39       29.683539   0.000000
   40       30.282300   0.000000
 
  0.2727273E+00  0.9090909E-01  0.0000000E+00  0.1803156E-01
    1       -1.684540   1.000000
    2        1.326759   1.000000
    3        1.797212   1.000000
    4        1.823755   1.000000
    5        2.278691   1.000000
    6        2.319138   1.000000
    7        2.325550   1.000000
    8        3.612104   1.000000
    9        4.311852   1.000000
   10        4.332256   1.000000
   11        4.533578   1.000000
   12        4.580654   1.000000
   13        4.951651   1.009095
   14        5.112989   1.034578
   15        5.422252   0.193796
   16        5.620333  -0.032341
   17        5.662506  -0.023303
   18        5.835899  -0.001371
   19        5.905346  -0.000261
   20        6.300705  -0.000000
   21        6.302695  -0.000000
   22        6.488685  -0.000000
   23       10.159451  -0.000000
   24       10.936663   0.000000
   25       15.407119   0.000000
   26       16.304501   0.000000
   27       16.471729   0.000000
   28       17.297075   0.000000
   29       18.524515   0.000000
   30       19.703547   0.000000
   31       19.742249   0.000000
   32       20.973280   0.000000
   33       21.303866   0.000000
   34       25.829722   0.000000
   35       26.034246   0.000000
   36       26.959638   0.000000
   37       28.349292   0.000000
   38       29.056014   0.000000
   39       29.222526   0.000000
   40       29.969383   0.000000
 
  0.3636364E+00  0.9090909E-01  0.0000000E+00  0.1803156E-01
    1       -1.023971   1.000000
    2        1.061385   1.000000
    3        2.080780   1.000000
    4        2.097798   1.000000
    5        2.508452   1.000000
    6        2.593753   1.000000
    7        2.616619   1.000000
    8        3.353603   1.000000
    9        3.919928   1.000000
   10        3.982447   1.000000
   11        4.433966   1.000000
   12        4.563151   1.000000
   13        4.615906   1.000002
   14        4.831759   1.000887
   15        5.365253   0.408696
   16        5.395719   0.287300
   17        5.508494   0.003877
   18        5.538334  -0.022215
   19        5.630677  -0.030396
   20        6.033543  -0.000006
   21        6.299444  -0.000000
   22        6.302295  -0.000000
   23       11.211149   0.000000
   24       12.083604   0.000000
   25       14.480282   0.000000
   26       15.937697   0.000000
   27       16.179130   0.000000
   28       16.602139   0.000000
   29       17.938592   0.000000
   30       18.901029   0.000000
   31       21.592797   0.000000
   32       21.888927   0.000000
   33       22.575334   0.000000
   34       24.958692   0.000000
   35       25.581518   0.000000
   36       26.324249   0.000000
   37       28.194710   0.000000
   38       28.435080   0.000000
   39       30.361642   0.000000
   40       30.483077   0.000000
 
  0.4545455E+00  0.9090909E-01  0.0000000E+00  0.1803156E-01
    1       -0.260346   1.000000
    2        0.494090   1.000000
    3        2.281608   1.000000
    4        2.288810   1.000000
    5        2.777747   1.000000
    6        2.945069   1.000000
    7        2.991500   1.000000
    8        3.067108   1.000000
    9        3.387008   1.000000
   10        3.448446   1.000000
   11        4.375844   1.000000
   12        4.392204   1.000000
   13        4.846922   1.001249
   14        4.966812   1.011431
   15        5.169162   1.006216
   16        5.191841   0.978645
   17        5.203875   0.959275
   18        5.270226   0.788296
   19        5.674982  -0.020445
   20        5.829764  -0.001566
   21        6.299922  -0.000000
   22        6.301363  -0.000000
   23       12.289871   0.000000
   24       13.310909   0.000000
   25       13.382777   0.000000
   26       14.601653   0.000000
   27       16.353899   0.000000
   28       16.569813   0.000000
   29       17.817313   0.000000
   30       18.215496   0.000000
   31       22.919835   0.000000
   32       22.982680   0.000000
   33       23.974209   0.000000
   34       24.262219   0.000000
   35       24.498722   0.000000
   36       26.538549   0.000000
   37       26.749094   0.000000
   38       27.357856   0.000000
   39       31.340650   0.000000
   40       32.603290   0.000000
 
  0.1818182E+00  0.1818182E+00  0.0000000E+00  0.9015778E-02
    1       -1.882476   1.000000
    2        1.567032   1.000000
    3        1.567032   1.000000
    4        1.731271   1.000000
    5        2.219465   1.000000
    6        2.219465   1.000000
    7        2.223084   1.000000
    8        3.741759   1.000000
    9        4.220431   1.000000
   10        4.220539   1.000000
   11        4.872945   1.002178
   12        4.904558   1.004053
   13        4.904558   1.004053
   14        5.079898   1.034277
   15        5.354565   0.453401
   16        5.722201  -0.011110
   17        5.878709  -0.000509
   18        5.878709  -0.000509
   19        6.112983  -0.000000
   20        6.112983  -0.000000
   21        6.205398  -0.000000
   22        8.167418  -0.000000
   23        8.167418  -0.000000
   24       10.585521  -0.000000
   25       15.228259   0.000000
   26       16.255797   0.000000
   27       17.907530   0.000000
   28       17.907530   0.000000
   29       19.052556   0.000000
   30       19.052556   0.000000
   31       19.771139   0.000000
   32       19.771139   0.000000
   33       21.449670   0.000000
   34       25.637771   0.000000
   35       26.435914   0.000000
   36       26.879360   0.000000
   37       27.361082   0.000000
   38       27.361082   0.000000
   39       30.767487   0.000000
   40       31.121567   0.000000
 
  0.2727273E+00  0.1818182E+00  0.0000000E+00  0.1803156E-01
    1       -1.395446   1.000000
    2        1.531322   1.000000
    3        1.848857   1.000000
    4        1.969652   1.000000
    5        2.380972   1.000000
    6        2.389402   1.000000
    7        2.412418   1.000000
    8        3.580727   1.000000
    9        4.270016   1.000000
   10        4.280893   1.000000
   11        4.361945   1.000000
   12        4.404953   1.000000
   13        4.508270   1.000000
   14        4.967470   1.011541
   15        5.466719   0.072967
   16        5.519409  -0.007662
   17        5.649331  -0.026342
   18        5.768059  -0.005273
   19        5.834120  -0.001425
   20        6.111071  -0.000000
   21        6.146733  -0.000000
   22        7.215980  -0.000000
   23        9.044078  -0.000000
   24       11.512316   0.000000
   25       14.094475   0.000000
   26       16.165787   0.000000
   27       17.704407   0.000000
   28       17.951404   0.000000
   29       19.103220   0.000000
   30       19.616436   0.000000
   31       19.706755   0.000000
   32       20.750866   0.000000
   33       21.519522   0.000000
   34       24.592339   0.000000
   35       25.458580   0.000000
   36       27.260462   0.000000
   37       27.629260   0.000000
   38       29.238502   0.000000
   39       30.586733   0.000000
   40       31.407736   0.000000
 
  0.3636364E+00  0.1818182E+00  0.0000000E+00  0.1803156E-01
    1       -0.752681   1.000000
    2        1.278911   1.000000
    3        2.162592   1.000000
    4        2.243732   1.000000
    5        2.592290   1.000000
    6        2.597080   1.000000
    7        2.682002   1.000000
    8        3.357242   1.000000
    9        3.706335   1.000000
   10        3.907525   1.000000
   11        4.183778   1.000000
   12        4.287505   1.000000
   13        4.578712   1.000000
   14        4.908448   1.004356
   15        5.298336   0.685937
   16        5.391353   0.303931
   17        5.507531   0.005014
   18        5.554782  -0.030022
   19        5.637824  -0.028904
   20        6.109170  -0.000000
   21        6.120754  -0.000000
   22        6.539263  -0.000000
   23        9.945797  -0.000000
   24       12.589587   0.000000
   25       12.925883   0.000000
   26       16.341646   0.000000
   27       16.348327   0.000000
   28       17.618323   0.000000
   29       19.035292   0.000000
   30       20.534707   0.000000
   31       20.805492   0.000000
   32       20.892714   0.000000
   33       22.641492   0.000000
   34       23.539357   0.000000
   35       24.154511   0.000000
   36       28.017954   0.000000
   37       29.034782   0.000000
   38       29.494730   0.000000
   39       29.933470   0.000000
   40       31.351498   0.000000
 
  0.4545455E+00  0.1818182E+00  0.0000000E+00  0.1803156E-01
    1       -0.010426   1.000000
    2        0.724349   1.000000
    3        2.405524   1.000000
    4        2.444633   1.000000
    5        2.838627   1.000000
    6        2.851335   1.000000
    7        3.026002   1.000000
    8        3.101117   1.000000
    9        3.225511   1.000000
   10        3.438801   1.000000
   11        4.090777   1.000000
   12        4.182083   1.000000
   13        4.853897   1.001455
   14        5.026392   1.023727
   15        5.157210   1.016498
   16        5.170858   1.004532
   17        5.193233   0.976578
   18        5.274773   0.772765
   19        5.851734  -0.000962
   20        6.108395  -0.000000
   21        6.111162  -0.000000
   22        6.126330  -0.000000
   23       10.876989   0.000000
   24       11.859555   0.000000
   25       13.770935   0.000000
   26       15.029730   0.000000
   27       16.652838   0.000000
   28       17.092982   0.000000
   29       19.471243   0.000000
   30       20.131739   0.000000
   31       21.479831   0.000000
   32       21.846253   0.000000
   33       22.492809   0.000000
   34       22.952716   0.000000
   35       24.917070   0.000000
   36       27.242399   0.000000
   37       28.540040   0.000000
   38       29.194997   0.000000
   39       31.215510   0.000000
   40       32.672654   0.000000
 
  0.2727273E+00  0.2727273E+00  0.0000000E+00  0.9015778E-02
    1       -0.930419   1.000000
    2        1.839782   1.000000
    3        1.839782   1.000000
    4        2.185254   1.000000
    5        2.502094   1.000000
    6        2.550308   1.000000
    7        2.550308   1.000000
    8        3.492371   1.000000
    9        3.964718   1.000000
   10        3.964718   1.000000
   11        4.122764   1.000000
   12        4.249889   1.000000
   13        4.456469   1.000000
   14        4.900827   1.003778
   15        5.359225   0.433828
   16        5.557803  -0.031035
   17        5.557803  -0.031035
   18        5.625935  -0.031325
   19        5.832418  -0.001479
   20        5.832418  -0.001479
   21        6.005327  -0.000015
   22        7.967786  -0.000000
   23        7.967786  -0.000000
   24       12.341604   0.000000
   25       12.724366   0.000000
   26       16.311212   0.000000
   27       18.336469   0.000000
   28       18.336469   0.000000
   29       19.007956   0.000000
   30       19.007956   0.000000
   31       20.704280   0.000000
   32       20.704280   0.000000
   33       22.929006   0.000000
   34       23.373434   0.000000
   35       24.071283   0.000000
   36       26.729680   0.000000
   37       29.549732   0.000000
   38       29.549732   0.000000
   39       31.614731   0.000000
   40       32.247190   0.000000
 
  0.3636364E+00  0.2727273E+00  0.0000000E+00  0.1803156E-01
    1       -0.319636   1.000000
    2        1.608056   1.000000
    3        2.195062   1.000000
    4        2.443372   1.000000
    5        2.622593   1.000000
    6        2.728834   1.000000
    7        2.783969   1.000000
    8        3.340195   1.000000
    9        3.489372   1.000000
   10        3.775674   1.000000
   11        3.787169   1.000000
   12        4.175976   1.000000
   13        4.633491   1.000003
   14        4.848191   1.001284
   15        5.179147   0.995448
   16        5.316808   0.611974
   17        5.370727   0.386106
   18        5.509699   0.002480
   19        5.833520  -0.001444
   20        5.871297  -0.000609
   21        5.913612  -0.000210
   22        7.140609  -0.000000
   23        8.746160  -0.000000
   24       11.516618   0.000000
   25       13.344905   0.000000
   26       16.580108   0.000000
   27       16.985773   0.000000
   28       18.218205   0.000000
   29       19.142371   0.000000
   30       19.809840   0.000000
   31       21.071237   0.000000
   32       22.207356   0.000000
   33       22.815892   0.000000
   34       22.932848   0.000000
   35       23.029176   0.000000
   36       27.765361   0.000000
   37       29.984836   0.000000
   38       30.246961   0.000000
   39       31.688861   0.000000
   40       31.693341   0.000000
 
  0.4545455E+00  0.2727273E+00  0.0000000E+00  0.1803156E-01
    1        0.382355   1.000000
    2        1.077679   1.000000
    3        2.503144   1.000000
    4        2.652254   1.000000
    5        2.741073   1.000000
    6        2.933369   1.000000
    7        3.075932   1.000000
    8        3.083049   1.000000
    9        3.144987   1.000000
   10        3.414030   1.000000
   11        3.835020   1.000000
   12        4.012304   1.000000
   13        4.882327   1.002635
   14        4.929237   1.006303
   15        5.069833   1.032859
   16        5.122281   1.032931
   17        5.131034   1.030456
   18        5.182580   0.991257
   19        5.841560  -0.001210
   20        5.864298  -0.000719
   21        6.179149  -0.000000
   22        6.574936  -0.000000
   23        9.568483  -0.000000
   24       10.476581  -0.000000
   25       14.470591   0.000000
   26       15.690639   0.000000
   27       16.978327   0.000000
   28       17.523157   0.000000
   29       20.076755   0.000000
   30       20.691639   0.000000
   31       21.105448   0.000000
   32       21.650802   0.000000
   33       21.691423   0.000000
   34       22.365696   0.000000
   35       25.341634   0.000000
   36       27.812501   0.000000
   37       29.826709   0.000000
   38       30.538498   0.000000
   39       31.165619   0.000000
   40       32.114607   0.000000
 
  0.3636364E+00  0.3636364E+00  0.0000000E+00  0.9015778E-02
    1        0.242250   1.000000
    2        1.989194   1.000000
    3        1.989194   1.000000
    4        2.551835   1.000000
    5        2.762196   1.000000
    6        2.911873   1.000000
    7        2.911873   1.000000
    8        3.282558   1.000000
    9        3.455556   1.000000
   10        3.455556   1.000000
   11        3.588755   1.000000
   12        4.061750   1.000000
   13        4.755036   1.000128
   14        4.759587   1.000145
   15        5.029340   1.024410
   16        5.151522   1.020470
   17        5.151522   1.020470
   18        5.521939  -0.009992
   19        5.521939  -0.009992
   20        5.739778  -0.008491
   21        6.195868  -0.000000
   22        7.788296  -0.000000
   23        7.788296  -0.000000
   24       10.314660  -0.000000
   25       14.280982   0.000000
   26       16.931418   0.000000
   27       17.800242   0.000000
   28       17.800242   0.000000
   29       18.864480   0.000000
   30       18.864480   0.000000
   31       20.965904   0.000000
   32       21.611217   0.000000
   33       23.402495   0.000000
   34       23.402495   0.000000
   35       24.801657   0.000000
   36       27.125496   0.000000
   37       30.422478   0.000000
   38       31.776056   0.000000
   39       32.147902   0.000000
   40       32.147902   0.000000
 
  0.4545455E+00  0.3636364E+00  0.0000000E+00  0.1803156E-01
    1        0.878067   1.000000
    2        1.502362   1.000000
    3        2.325230   1.000000
    4        2.514808   1.000000
    5        2.975999   1.000000
    6        3.050677   1.000000
    7        3.129975   1.000000
    8        3.181176   1.000000
    9        3.193017   1.000000
   10        3.364342   1.000000
   11        3.632958   1.000000
   12        3.874360   1.000000
   13        4.782612   1.000267
   14        4.929835   1.006367
   15        4.941122   1.007688
   16        4.953640   1.009380
   17        4.974460   1.012749
   18        5.217611   0.932861
   19        5.554658  -0.029978
   20        5.622081  -0.032034
   21        6.591126  -0.000000
   22        7.094591  -0.000000
   23        8.500558  -0.000000
   24        9.323710  -0.000000
   25       15.353697   0.000000
   26       16.532779   0.000000
   27       17.418650   0.000000
   28       18.060405   0.000000
   29       18.752303   0.000000
   30       19.639359   0.000000
   31       19.812799   0.000000
   32       20.553530   0.000000
   33       24.034159   0.000000
   34       24.747050   0.000000
   35       25.872262   0.000000
   36       28.389610   0.000000
   37       28.593349   0.000000
   38       30.936346   0.000000
   39       31.805461   0.000000
   40       32.404296   0.000000
 
  0.4545455E+00  0.4545455E+00  0.0000000E+00  0.9015778E-02
    1        1.416016   1.000000
    2        1.922375   1.000000
    3        1.922375   1.000000
    4        2.266108   1.000000
    5        3.173681   1.000000
    6        3.173681   1.000000
    7        3.192971   1.000000
    8        3.245403   1.000000
    9        3.283100   1.000000
   10        3.457633   1.000000
   11        3.457633   1.000000
   12        3.705125   1.000000
   13        4.715667   1.000042
   14        4.801819   1.000434
   15        4.801819   1.000434
   16        4.804169   1.000460
   17        5.088499   1.035092
   18        5.293157   0.705847
   19        5.293157   0.705847
   20        5.426216   0.181090
   21        7.078863  -0.000000
   22        7.689148  -0.000000
   23        7.689148  -0.000000
   24        8.409543  -0.000000
   25       16.378218   0.000000
   26       17.516117   0.000000
   27       17.516117   0.000000
   28       18.000322   0.000000
   29       18.614758   0.000000
   30       18.738235   0.000000
   31       18.738235   0.000000
   32       19.568035   0.000000
   33       26.544252   0.000000
   34       26.544252   0.000000
   35       26.974333   0.000000
   36       27.809294   0.000000
   37       28.900598   0.000000
   38       29.353036   0.000000
   39       29.935919   0.000000
   40       29.935919   0.000000
 
  0.9090909E-01  0.9090909E-01  0.9090909E-01  0.6010518E-02
    1       -2.390068   1.000000
    2        1.416583   1.000000
    3        1.416583   1.000000
    4        1.416583   1.000000
    5        2.034075   1.000000
    6        2.034075   1.000000
    7        2.034075   1.000000
    8        3.915054   1.000000
    9        4.097746   1.000000
   10        4.097746   1.000000
   11        5.249309   0.853827
   12        5.249309   0.853827
   13        5.666320  -0.022423
   14        5.666320  -0.022423
   15        5.666320  -0.022423
   16        5.960829  -0.000057
   17        5.960829  -0.000057
   18        5.960829  -0.000057
   19        6.302900  -0.000000
   20        6.302900  -0.000000
   21        6.302900  -0.000000