 vasp.6.2.0 18Jan21 (build Mar 17 2021 09:06:54) complex                        
  
 executed on             LinuxIFC date 2021.09.09  09:04:29
 serial version


--------------------------------------------------------------------------------------------------------


 INCAR:
   ENCUT = 300.000000
   SIGMA = 0.200000
   EDIFF = 1.00e-06
   GGA = PE
   PREC = normal
   IBRION = 1
   ICHARG = 1
   ISIF = 2
   ISMEAR = 1
   KPAR = 1
   NBANDS = 40
   NSW = 0
   NCORE = 1
   LCHARG = .TRUE.

 POTCAR:    PAW_PBE Fe 06Sep2000                  
 POTCAR:    PAW_PBE Fe 06Sep2000                  
   SHA256 =  cd5a22d9368cc8b5cc476bea79732366149640da08ac9009b0e1b7fc627eea28 Fe/POTCAR             
   COPYR  = (c) Copyright 06Sep2000 Georg Kresse                                                    
   COPYR  = This file is part of the software VASP. Any use, copying, and all other rights are regul
   COPYR  = If you do not have a valid VASP license, you may not use, copy or distribute this file. 
   VRHFIN =Fe:  d7 s1                                                                               
   LEXCH  = PE                                                                                      
   EATOM  =   594.3153 eV,   43.6809 Ry                                                             
                                                                                                    
   TITEL  = PAW_PBE Fe 06Sep2000                                                                    
   LULTRA =        F    use ultrasoft PP ?                                                          
   IUNSCR =        1    unscreen: 0-lin 1-nonlin 2-no                                               
   RPACOR =    2.000    partial core radius                                                         
   POMASS =   55.847; ZVAL   =    8.000    mass and valenz                                          
   RCORE  =    2.300    outmost cutoff radius                                                       
   RWIGS  =    2.460; RWIGS  =    1.302    wigner-seitz radius (au A)                               
   ENMAX  =  267.882; ENMIN  =  200.911 eV                                                          
   RCLOC  =    1.701    cutoff for local pot                                                        
   LCOR   =        T    correct aug charges                                                         
   LPAW   =        T    paw PP                                                                      
   EAUG   =  511.368                                                                                
   DEXC   =    0.000                                                                                
   RMAX   =    2.356    core radius for proj-oper                                                   
   RAUG   =    1.300    factor for augmentation sphere                                              
   RDEP   =    2.442    radius for radial grids                                                     
   RDEPT  =    1.890    core radius for aug-charge                                                  
                                                                                                    
   Atomic configuration                                                                             
    9 entries                                                                                       
     n  l   j            E        occ.                                                              
     1  0  0.50     -6993.8440   2.0000                                                             
     2  0  0.50      -814.6047   2.0000                                                             
     2  1  1.50      -693.3689   6.0000                                                             
     3  0  0.50       -89.4732   2.0000                                                             
     3  1  1.50       -55.6373   6.0000                                                             
     3  2  2.50        -3.8151   7.0000                                                             
     4  0  0.50        -4.2551   1.0000                                                             
     4  1  1.50        -3.4015   0.0000                                                             
     4  3  2.50        -1.3606   0.0000                                                             
   Description                                                                                      
     l       E           TYP  RCUT    TYP  RCUT                                                     
     2     -3.8151135     23  2.300                                                                 
     2     -5.1756961     23  2.300                                                                 
     0     -4.2550963     23  2.300                                                                 
     0      7.2035603     23  2.300                                                                 
     1     -2.7211652     23  2.300                                                                 
     1     18.4316424     23  2.300                                                                 
  local pseudopotential read in
  partial core-charges read in
  partial kinetic energy density read in
  atomic valenz-charges read in
  non local Contribution for L=           2  read in
    real space projection operators read in
  non local Contribution for L=           2  read in
    real space projection operators read in
  non local Contribution for L=           0  read in
    real space projection operators read in
  non local Contribution for L=           0  read in
    real space projection operators read in
  non local Contribution for L=           1  read in
    real space projection operators read in
  non local Contribution for L=           1  read in
    real space projection operators read in
    PAW grid and wavefunctions read in
 
   number of l-projection  operators is LMAX  =           6
   number of lm-projection operators is LMMAX =          18
 
  PAW_PBE Fe 06Sep2000                  :
 energy of atom  1       EATOM= -594.3153
 kinetic energy error for atom=    0.0269 (will be added to EATOM!!)
 
 
 POSCAR: Fe
  positions in cartesian coordinates
  No initial velocities read in
 exchange correlation table for  LEXCH =        8
   RHO(1)=    0.500       N(1)  =     2000
   RHO(2)=  100.500       N(2)  =     4000
 


--------------------------------------------------------------------------------------------------------


 ion  position               nearest neighbor table
   1  0.000  0.000  0.000-   2 2.55   3 2.55   4 2.55   3 2.55   4 2.55   2 2.55   4 2.55   4 2.55
                             2 2.55   3 2.55   3 2.55   2 2.55
   2  0.500  0.500  0.000-   1 2.55   3 2.55   4 2.55   3 2.55   4 2.55   1 2.55   3 2.55   3 2.55
                             1 2.55   4 2.55   4 2.55   1 2.55
   3  0.500  0.000  0.500-   1 2.55   2 2.55   4 2.55   1 2.55   2 2.55   2 2.55   4 2.55   2 2.55
                             1 2.55   4 2.55   1 2.55   4 2.55
   4  0.000  0.500  0.500-   1 2.55   2 2.55   3 2.55   1 2.55   2 2.55   1 2.55   3 2.55   1 2.55
                             2 2.55   3 2.55   2 2.55   3 2.55
 
  LATTYP: Found a simple cubic cell.
 ALAT       =     3.6093774689
  
  Lattice vectors:
  
 A1 = (   3.6093774689,   0.0000000000,   0.0000000000)
 A2 = (   0.0000000000,   3.6093774689,   0.0000000000)
 A3 = (   0.0000000000,   0.0000000000,   3.6093774689)


Analysis of symmetry for initial positions (statically):
=====================================================================
 Subroutine PRICEL returns following result:
 
  LATTYP: Found a face centered cubic cell.
 ALAT       =     3.6093774689
  
  Lattice vectors:
  
 A1 = (   1.8046887345,  -1.8046887345,   0.0000000000)
 A2 = (   1.8046887345,   0.0000000000,   1.8046887345)
 A3 = (   0.0000000000,  -1.8046887345,   1.8046887345)
 
   4 primitive cells build up your supercell.
 

 Routine SETGRP: Setting up the symmetry group for a 
 simple cubic supercell.


 Subroutine GETGRP returns: Found 48 space group operations
 (whereof 48 operations were pure point group operations)
 out of a pool of 48 trial point group operations.


The static configuration has the point symmetry O_h .


Analysis of symmetry for dynamics (positions and initial velocities):
=====================================================================
 Subroutine PRICEL returns following result:
 
  LATTYP: Found a face centered cubic cell.
 ALAT       =     3.6093774689
  
  Lattice vectors:
  
 A1 = (   1.8046887345,  -1.8046887345,   0.0000000000)
 A2 = (   1.8046887345,   0.0000000000,   1.8046887345)
 A3 = (   0.0000000000,  -1.8046887345,   1.8046887345)
 
   4 primitive cells build up your supercell.
 

 Routine SETGRP: Setting up the symmetry group for a 
 simple cubic supercell.


 Subroutine GETGRP returns: Found 48 space group operations
 (whereof 48 operations were pure point group operations)
 out of a pool of 48 trial point group operations.


The dynamic configuration has the point symmetry O_h .


 Subroutine INISYM returns: Found 48 space group operations
 (whereof 48 operations are pure point group operations),
 and found     4 'primitive' translations


----------------------------------------------------------------------------------------

                                     Primitive cell                                     

  volume of cell :      11.7554

  direct lattice vectors                    reciprocal lattice vectors
     1.804688734 -1.804688734  0.000000000     0.277056088 -0.277056088 -0.277056088
     1.804688734  0.000000000  1.804688734     0.277056088  0.277056088  0.277056088
     0.000000000 -1.804688734  1.804688734    -0.277056088 -0.277056088  0.277056088

  length of vectors
     2.552215284  2.552215284  2.552215284     0.479875220  0.479875220  0.479875220

  position of ions in fractional coordinates (direct lattice)
     0.000000000  0.000000000  0.000000000

  ion indices of the primitive-cell ions
   primitive index   ion index
                 1           1

----------------------------------------------------------------------------------------

 
 
 KPOINTS: KPOINTS created by Atomic Simulation Env

Automatic generation of k-mesh.
 Grid dimensions read from file:
 generate k-points for:   11   11   11

 Generating k-lattice:

  Cartesian coordinates                     Fractional coordinates (reciprocal lattice)
     0.025186917  0.000000000  0.000000000     0.090909091  0.000000000  0.000000000
     0.000000000  0.025186917  0.000000000     0.000000000  0.090909091  0.000000000
     0.000000000  0.000000000  0.025186917     0.000000000  0.000000000  0.090909091

  Length of vectors
     0.025186917  0.025186917  0.025186917

  Shift w.r.t. Gamma in fractional coordinates (k-lattice)
     0.000000000  0.000000000  0.000000000

 
 Subroutine IBZKPT returns following result:
 ===========================================
 
 Found     56 irreducible k-points:
 
 Following reciprocal coordinates:
            Coordinates               Weight
  0.000000  0.000000  0.000000      1.000000
  0.090909  0.000000  0.000000      6.000000
  0.181818  0.000000  0.000000      6.000000
  0.272727  0.000000  0.000000      6.000000
  0.363636  0.000000  0.000000      6.000000
  0.454545  0.000000  0.000000      6.000000
  0.090909  0.090909  0.000000     12.000000
  0.181818  0.090909  0.000000     24.000000
  0.272727  0.090909  0.000000     24.000000
  0.363636  0.090909  0.000000     24.000000
  0.454545  0.090909  0.000000     24.000000
  0.181818  0.181818  0.000000     12.000000
  0.272727  0.181818  0.000000     24.000000
  0.363636  0.181818  0.000000     24.000000
  0.454545  0.181818  0.000000     24.000000
  0.272727  0.272727  0.000000     12.000000
  0.363636  0.272727  0.000000     24.000000
  0.454545  0.272727  0.000000     24.000000
  0.363636  0.363636  0.000000     12.000000
  0.454545  0.363636  0.000000     24.000000
  0.454545  0.454545  0.000000     12.000000
  0.090909  0.090909  0.090909      8.000000
  0.181818  0.090909  0.090909     24.000000
  0.272727  0.090909  0.090909     24.000000
  0.363636  0.090909  0.090909     24.000000
  0.454545  0.090909  0.090909     24.000000
  0.181818  0.181818  0.090909     24.000000
  0.272727  0.181818  0.090909     48.000000
  0.363636  0.181818  0.090909     48.000000
  0.454545  0.181818  0.090909     48.000000
  0.272727  0.272727  0.090909     24.000000
  0.363636  0.272727  0.090909     48.000000
  0.454545  0.272727  0.090909     48.000000
  0.363636  0.363636  0.090909     24.000000
  0.454545  0.363636  0.090909     48.000000
  0.454545  0.454545  0.090909     24.000000
  0.181818  0.181818  0.181818      8.000000
  0.272727  0.181818  0.181818     24.000000
  0.363636  0.181818  0.181818     24.000000
  0.454545  0.181818  0.181818     24.000000
  0.272727  0.272727  0.181818     24.000000
  0.363636  0.272727  0.181818     48.000000
  0.454545  0.272727  0.181818     48.000000
  0.363636  0.363636  0.181818     24.000000
  0.454545  0.363636  0.181818     48.000000
  0.454545  0.454545  0.181818     24.000000
  0.272727  0.272727  0.272727      8.000000
  0.363636  0.272727  0.272727     24.000000
  0.454545  0.272727  0.272727     24.000000
  0.363636  0.363636  0.272727     24.000000
  0.454545  0.363636  0.272727     48.000000
  0.454545  0.454545  0.272727     24.000000
  0.363636  0.363636  0.363636      8.000000
  0.454545  0.363636  0.363636     24.000000
  0.454545  0.454545  0.363636     24.000000
  0.454545  0.454545  0.454545      8.000000
 
 Following cartesian coordinates:
            Coordinates               Weight
  0.000000  0.000000  0.000000      1.000000
  0.025187  0.000000  0.000000      6.000000
  0.050374  0.000000  0.000000      6.000000
  0.075561  0.000000  0.000000      6.000000
  0.100748  0.000000  0.000000      6.000000
  0.125935  0.000000  0.000000      6.000000
  0.025187  0.025187  0.000000     12.000000
  0.050374  0.025187  0.000000     24.000000
  0.075561  0.025187  0.000000     24.000000
  0.100748  0.025187  0.000000     24.000000
  0.125935  0.025187  0.000000     24.000000
  0.050374  0.050374  0.000000     12.000000
  0.075561  0.050374  0.000000     24.000000
  0.100748  0.050374  0.000000     24.000000
  0.125935  0.050374  0.000000     24.000000
  0.075561  0.075561  0.000000     12.000000
  0.100748  0.075561  0.000000     24.000000
  0.125935  0.075561  0.000000     24.000000
  0.100748  0.100748  0.000000     12.000000
  0.125935  0.100748  0.000000     24.000000
  0.125935  0.125935  0.000000     12.000000
  0.025187  0.025187  0.025187      8.000000
  0.050374  0.025187  0.025187     24.000000
  0.075561  0.025187  0.025187     24.000000
  0.100748  0.025187  0.025187     24.000000
  0.125935  0.025187  0.025187     24.000000
  0.050374  0.050374  0.025187     24.000000
  0.075561  0.050374  0.025187     48.000000
  0.100748  0.050374  0.025187     48.000000
  0.125935  0.050374  0.025187     48.000000
  0.075561  0.075561  0.025187     24.000000
  0.100748  0.075561  0.025187     48.000000
  0.125935  0.075561  0.025187     48.000000
  0.100748  0.100748  0.025187     24.000000
  0.125935  0.100748  0.025187     48.000000
  0.125935  0.125935  0.025187     24.000000
  0.050374  0.050374  0.050374      8.000000
  0.075561  0.050374  0.050374     24.000000
  0.100748  0.050374  0.050374     24.000000
  0.125935  0.050374  0.050374     24.000000
  0.075561  0.075561  0.050374     24.000000
  0.100748  0.075561  0.050374     48.000000
  0.125935  0.075561  0.050374     48.000000
  0.100748  0.100748  0.050374     24.000000
  0.125935  0.100748  0.050374     48.000000
  0.125935  0.125935  0.050374     24.000000
  0.075561  0.075561  0.075561      8.000000
  0.100748  0.075561  0.075561     24.000000
  0.125935  0.075561  0.075561     24.000000
  0.100748  0.100748  0.075561     24.000000
  0.125935  0.100748  0.075561     48.000000
  0.125935  0.125935  0.075561     24.000000
  0.100748  0.100748  0.100748      8.000000
  0.125935  0.100748  0.100748     24.000000
  0.125935  0.125935  0.100748     24.000000
  0.125935  0.125935  0.125935      8.000000
 


--------------------------------------------------------------------------------------------------------




 Dimension of arrays:
   k-points           NKPTS =     56   k-points in BZ     NKDIM =     56   number of bands    NBANDS=     40
   number of dos      NEDOS =    301   number of ions     NIONS =      4
   non local maximal  LDIM  =      6   non local SUM 2l+1 LMDIM =     18
   total plane-waves  NPLWV =   4096
   max r-space proj   IRMAX =      1   max aug-charges    IRDMAX=   3302
   dimension x,y,z NGX =    16 NGY =   16 NGZ =   16
   dimension x,y,z NGXF=    32 NGYF=   32 NGZF=   32
   support grid    NGXF=    32 NGYF=   32 NGZF=   32
   ions per type =               4
   NGX,Y,Z   is equivalent  to a cutoff of   7.37,  7.37,  7.37 a.u.
   NGXF,Y,Z  is equivalent  to a cutoff of  14.74, 14.74, 14.74 a.u.

 SYSTEM =  unknown system                          
 POSCAR =  Fe                                      

 Startparameter for this run:
   NWRITE =      2    write-flag & timer
   PREC   = normal    normal or accurate (medium, high low for compatibility)
   ISTART =      0    job   : 0-new  1-cont  2-samecut
   ICHARG =      1    charge: 1-file 2-atom 10-const
   ISPIN  =      1    spin polarized calculation?
   LNONCOLLINEAR =      F non collinear calculations
   LSORBIT =      F    spin-orbit coupling
   INIWAV =      1    electr: 0-lowe 1-rand  2-diag
   LASPH  =      F    aspherical Exc in radial PAW
   METAGGA=      F    non-selfconsistent MetaGGA calc.

 Electronic Relaxation 1
   ENCUT  =  300.0 eV  22.05 Ry    4.70 a.u.   5.10  5.10  5.10*2*pi/ulx,y,z
   ENINI  =  300.0     initial cutoff
   ENAUG  =  511.4 eV  augmentation charge cutoff
   NELM   =     60;   NELMIN=  2; NELMDL= -5     # of ELM steps 
   EDIFF  = 0.1E-05   stopping-criterion for ELM
   LREAL  =      F    real-space projection
   NLSPLINE    = F    spline interpolate recip. space projectors
   LCOMPAT=      F    compatible to vasp.4.4
   GGA_COMPAT  = T    GGA compatible to vasp.4.4-vasp.4.6
   LMAXPAW     = -100 max onsite density
   LMAXMIX     =    2 max onsite mixed and CHGCAR
   VOSKOWN=      0    Vosko Wilk Nusair interpolation
   ROPT   =    0.00000
 Ionic relaxation
   EDIFFG = 0.1E-04   stopping-criterion for IOM
   NSW    =      0    number of steps for IOM
   NBLOCK =      1;   KBLOCK =      1    inner block; outer block 
   IBRION =     -1    ionic relax: 0-MD 1-quasi-New 2-CG
   NFREE  =      0    steps in history (QN), initial steepest desc. (CG)
   ISIF   =      2    stress and relaxation
   IWAVPR =      0    prediction:  0-non 1-charg 2-wave 3-comb
   ISYM   =      2    0-nonsym 1-usesym 2-fastsym
   LCORR  =      T    Harris-Foulkes like correction to forces

   POTIM  = 0.5000    time-step for ionic-motion
   TEIN   =    0.0    initial temperature
   TEBEG  =    0.0;   TEEND  =   0.0 temperature during run
   SMASS  =  -3.00    Nose mass-parameter (am)
   estimated Nose-frequenzy (Omega)   =  0.10E-29 period in steps = 0.13E+47 mass=  -0.298E-27a.u.
   SCALEE = 1.0000    scale energy and forces
   NPACO  =    256;   APACO  = 16.0  distance and # of slots for P.C.
   PSTRESS=    0.0 pullay stress

  Mass of Ions in am
   POMASS =  55.85
  Ionic Valenz
   ZVAL   =   8.00
  Atomic Wigner-Seitz radii
   RWIGS  =  -1.00
  virtual crystal weights 
   VCA    =   1.00
   NELECT =      32.0000    total number of electrons
   NUPDOWN=      -1.0000    fix difference up-down

 DOS related values:
   EMIN   =  10.00;   EMAX   =-10.00  energy-range for DOS
   EFERMI =   0.00
   ISMEAR =     1;   SIGMA  =   0.20  broadening in eV -4-tet -1-fermi 0-gaus

 Electronic relaxation 2 (details)
   IALGO  =     38    algorithm
   LDIAG  =      T    sub-space diagonalisation (order eigenvalues)
   LSUBROT=      F    optimize rotation matrix (better conditioning)
   TURBO    =      0    0=normal 1=particle mesh
   IRESTART =      0    0=no restart 2=restart with 2 vectors
   NREBOOT  =      0    no. of reboots
   NMIN     =      0    reboot dimension
   EREF     =   0.00    reference energy to select bands
   IMIX   =      4    mixing-type and parameters
     AMIX     =   0.40;   BMIX     =  1.00
     AMIX_MAG =   1.60;   BMIX_MAG =  1.00
     AMIN     =   0.10
     WC   =   100.;   INIMIX=   1;  MIXPRE=   1;  MAXMIX= -45

 Intra band minimization:
   WEIMIN = 0.0000     energy-eigenvalue tresh-hold
   EBREAK =  0.62E-08  absolut break condition
   DEPER  =   0.30     relativ break condition  

   TIME   =   0.40     timestep for ELM

  volume/ion in A,a.u.               =      11.76        79.33
  Fermi-wavevector in a.u.,A,eV,Ry     =   1.439989  2.721185 28.212611  2.073568
  Thomas-Fermi vector in A             =   2.558783
 
 Write flags
   LWAVE        =      T    write WAVECAR
   LDOWNSAMPLE  =      F    k-point downsampling of WAVECAR
   LCHARG       =      T    write CHGCAR
   LVTOT        =      F    write LOCPOT, total local potential
   LVHAR        =      F    write LOCPOT, Hartree potential only
   LELF         =      F    write electronic localiz. function (ELF)
   LORBIT       =      0    0 simple, 1 ext, 2 COOP (PROOUT), +10 PAW based schemes


 Dipole corrections
   LMONO  =      F    monopole corrections only (constant potential shift)
   LDIPOL =      F    correct potential (dipole corrections)
   IDIPOL =      0    1-x, 2-y, 3-z, 4-all directions 
   EPSILON=  1.0000000 bulk dielectric constant

 Exchange correlation treatment:
   GGA     =    PE    GGA type
   LEXCH   =     8    internal setting for exchange type
   VOSKOWN=      0    Vosko Wilk Nusair interpolation
   LHFCALC =     F    Hartree Fock is set to
   LHFONE  =     F    Hartree Fock one center treatment
   AEXX    =    0.0000 exact exchange contribution

 Linear response parameters
   LEPSILON=     F    determine dielectric tensor
   LRPA    =     F    only Hartree local field effects (RPA)
   LNABLA  =     F    use nabla operator in PAW spheres
   LVEL    =     F    velocity operator in full k-point grid
   LINTERFAST=   F  fast interpolation
   KINTER  =     0    interpolate to denser k-point grid
   CSHIFT  =0.1000    complex shift for real part using Kramers Kronig
   OMEGAMAX=  -1.0    maximum frequency
   DEG_THRESHOLD= 0.2000000E-02 threshold for treating states as degnerate
   RTIME   =   -0.100 relaxation time in fs
  (WPLASMAI=    0.000 imaginary part of plasma frequency in eV, 0.658/RTIME)
   DFIELD  = 0.0000000 0.0000000 0.0000000 field for delta impulse in time
 
 Orbital magnetization related:
   ORBITALMAG=     F  switch on orbital magnetization
   LCHIMAG   =     F  perturbation theory with respect to B field
   DQ        =  0.001000  dq finite difference perturbation B field
   LLRAUG    =     F  two centre corrections for induced B field



--------------------------------------------------------------------------------------------------------


 Static calculation
 charge density and potential will be updated during run
 non-spin polarized calculation
 Variant of blocked Davidson
 Davidson routine will perform the subspace rotation
 perform sub-space diagonalisation
    after iterative eigenvector-optimisation
 modified Broyden-mixing scheme, WC =      100.0
 initial mixing is a Kerker type mixing with AMIX =  0.4000 and BMIX =      1.0000
 Hartree-type preconditioning will be used
 using additional bands           24
 reciprocal scheme for non local part
 use partial core corrections
 calculate Harris-corrections to forces 
   (improved forces if not selfconsistent)
 use gradient corrections 
 use of overlap-Matrix (Vanderbilt PP)
 Methfessel and Paxton  Order N= 1 SIGMA  =   0.20


--------------------------------------------------------------------------------------------------------


  energy-cutoff  :      300.00
  volume of cell :       47.02
      direct lattice vectors                 reciprocal lattice vectors
     3.609377469  0.000000000  0.000000000     0.277056088  0.000000000  0.000000000
     0.000000000  3.609377469  0.000000000     0.000000000  0.277056088  0.000000000
     0.000000000  0.000000000  3.609377469     0.000000000  0.000000000  0.277056088

  length of vectors
     3.609377469  3.609377469  3.609377469     0.277056088  0.277056088  0.277056088


 
 k-points in units of 2pi/SCALE and weight: KPOINTS created by Atomic Simulation Env
   0.00000000  0.00000000  0.00000000       0.001
   0.02518692  0.00000000  0.00000000       0.005
   0.05037383  0.00000000  0.00000000       0.005
   0.07556075  0.00000000  0.00000000       0.005
   0.10074767  0.00000000  0.00000000       0.005
   0.12593459  0.00000000  0.00000000       0.005
   0.02518692  0.02518692  0.00000000       0.009
   0.05037383  0.02518692  0.00000000       0.018
   0.07556075  0.02518692  0.00000000       0.018
   0.10074767  0.02518692  0.00000000       0.018
   0.12593459  0.02518692  0.00000000       0.018
   0.05037383  0.05037383  0.00000000       0.009
   0.07556075  0.05037383  0.00000000       0.018
   0.10074767  0.05037383  0.00000000       0.018
   0.12593459  0.05037383  0.00000000       0.018
   0.07556075  0.07556075  0.00000000       0.009
   0.10074767  0.07556075  0.00000000       0.018
   0.12593459  0.07556075  0.00000000       0.018
   0.10074767  0.10074767  0.00000000       0.009
   0.12593459  0.10074767  0.00000000       0.018
   0.12593459  0.12593459  0.00000000       0.009
   0.02518692  0.02518692  0.02518692       0.006
   0.05037383  0.02518692  0.02518692       0.018
   0.07556075  0.02518692  0.02518692       0.018
   0.10074767  0.02518692  0.02518692       0.018
   0.12593459  0.02518692  0.02518692       0.018
   0.05037383  0.05037383  0.02518692       0.018
   0.07556075  0.05037383  0.02518692       0.036
   0.10074767  0.05037383  0.02518692       0.036
   0.12593459  0.05037383  0.02518692       0.036
   0.07556075  0.07556075  0.02518692       0.018
   0.10074767  0.07556075  0.02518692       0.036
   0.12593459  0.07556075  0.02518692       0.036
   0.10074767  0.10074767  0.02518692       0.018
   0.12593459  0.10074767  0.02518692       0.036
   0.12593459  0.12593459  0.02518692       0.018
   0.05037383  0.05037383  0.05037383       0.006
   0.07556075  0.05037383  0.05037383       0.018
   0.10074767  0.05037383  0.05037383       0.018
   0.12593459  0.05037383  0.05037383       0.018
   0.07556075  0.07556075  0.05037383       0.018
   0.10074767  0.07556075  0.05037383       0.036
   0.12593459  0.07556075  0.05037383       0.036
   0.10074767  0.10074767  0.05037383       0.018
   0.12593459  0.10074767  0.05037383       0.036
   0.12593459  0.12593459  0.05037383       0.018
   0.07556075  0.07556075  0.07556075       0.006
   0.10074767  0.07556075  0.07556075       0.018
   0.12593459  0.07556075  0.07556075       0.018
   0.10074767  0.10074767  0.07556075       0.018
   0.12593459  0.10074767  0.07556075       0.036
   0.12593459  0.12593459  0.07556075       0.018
   0.10074767  0.10074767  0.10074767       0.006
   0.12593459  0.10074767  0.10074767       0.018
   0.12593459  0.12593459  0.10074767       0.018
   0.12593459  0.12593459  0.12593459       0.006
 
 k-points in reciprocal lattice and weights: KPOINTS created by Atomic Simulation Env
   0.00000000  0.00000000  0.00000000       0.001
   0.09090909  0.00000000  0.00000000       0.005
   0.18181818  0.00000000  0.00000000       0.005
   0.27272727  0.00000000  0.00000000       0.005
   0.36363636  0.00000000  0.00000000       0.005
   0.45454545  0.00000000  0.00000000       0.005
   0.09090909  0.09090909  0.00000000       0.009
   0.18181818  0.09090909  0.00000000       0.018
   0.27272727  0.09090909  0.00000000       0.018
   0.36363636  0.09090909  0.00000000       0.018
   0.45454545  0.09090909  0.00000000       0.018
   0.18181818  0.18181818  0.00000000       0.009
   0.27272727  0.18181818  0.00000000       0.018
   0.36363636  0.18181818  0.00000000       0.018
   0.45454545  0.18181818  0.00000000       0.018
   0.27272727  0.27272727  0.00000000       0.009
   0.36363636  0.27272727  0.00000000       0.018
   0.45454545  0.27272727  0.00000000       0.018
   0.36363636  0.36363636  0.00000000       0.009
   0.45454545  0.36363636  0.00000000       0.018
   0.45454545  0.45454545  0.00000000       0.009
   0.09090909  0.09090909  0.09090909       0.006
   0.18181818  0.09090909  0.09090909       0.018
   0.27272727  0.09090909  0.09090909       0.018
   0.36363636  0.09090909  0.09090909       0.018
   0.45454545  0.09090909  0.09090909       0.018
   0.18181818  0.18181818  0.09090909       0.018
   0.27272727  0.18181818  0.09090909       0.036
   0.36363636  0.18181818  0.09090909       0.036
   0.45454545  0.18181818  0.09090909       0.036
   0.27272727  0.27272727  0.09090909       0.018
   0.36363636  0.27272727  0.09090909       0.036
   0.45454545  0.27272727  0.09090909       0.036
   0.36363636  0.36363636  0.09090909       0.018
   0.45454545  0.36363636  0.09090909       0.036
   0.45454545  0.45454545  0.09090909       0.018
   0.18181818  0.18181818  0.18181818       0.006
   0.27272727  0.18181818  0.18181818       0.018
   0.36363636  0.18181818  0.18181818       0.018
   0.45454545  0.18181818  0.18181818       0.018
   0.27272727  0.27272727  0.18181818       0.018
   0.36363636  0.27272727  0.18181818       0.036
   0.45454545  0.27272727  0.18181818       0.036
   0.36363636  0.36363636  0.18181818       0.018
   0.45454545  0.36363636  0.18181818       0.036
   0.45454545  0.45454545  0.18181818       0.018
   0.27272727  0.27272727  0.27272727       0.006
   0.36363636  0.27272727  0.27272727       0.018
   0.45454545  0.27272727  0.27272727       0.018
   0.36363636  0.36363636  0.27272727       0.018
   0.45454545  0.36363636  0.27272727       0.036
   0.45454545  0.45454545  0.27272727       0.018
   0.36363636  0.36363636  0.36363636       0.006
   0.45454545  0.36363636  0.36363636       0.018
   0.45454545  0.45454545  0.36363636       0.018
   0.45454545  0.45454545  0.45454545       0.006
 
 position of ions in fractional coordinates (direct lattice) 
   0.00000000  0.00000000  0.00000000
   0.50000000  0.50000000  0.00000000
   0.50000000  0.00000000  0.50000000
   0.00000000  0.50000000  0.50000000
 
 position of ions in cartesian coordinates  (Angst):
   0.00000000  0.00000000  0.00000000
   1.80468873  1.80468873  0.00000000
   1.80468873  0.00000000  1.80468873
   0.00000000  1.80468873  1.80468873
 


--------------------------------------------------------------------------------------------------------


 k-point   1 :   0.0000 0.0000 0.0000  plane waves:     515
 k-point   2 :   0.0909 0.0000 0.0000  plane waves:     547
 k-point   3 :   0.1818 0.0000 0.0000  plane waves:     546
 k-point   4 :   0.2727 0.0000 0.0000  plane waves:     542
 k-point   5 :   0.3636 0.0000 0.0000  plane waves:     546
 k-point   6 :   0.4545 0.0000 0.0000  plane waves:     554
 k-point   7 :   0.0909 0.0909 0.0000  plane waves:     555
 k-point   8 :   0.1818 0.0909 0.0000  plane waves:     552
 k-point   9 :   0.2727 0.0909 0.0000  plane waves:     545
 k-point  10 :   0.3636 0.0909 0.0000  plane waves:     551
 k-point  11 :   0.4545 0.0909 0.0000  plane waves:     556
 k-point  12 :   0.1818 0.1818 0.0000  plane waves:     545
 k-point  13 :   0.2727 0.1818 0.0000  plane waves:     547
 k-point  14 :   0.3636 0.1818 0.0000  plane waves:     550
 k-point  15 :   0.4545 0.1818 0.0000  plane waves:     556
 k-point  16 :   0.2727 0.2727 0.0000  plane waves:     553
 k-point  17 :   0.3636 0.2727 0.0000  plane waves:     554
 k-point  18 :   0.4545 0.2727 0.0000  plane waves:     559
 k-point  19 :   0.3636 0.3636 0.0000  plane waves:     567
 k-point  20 :   0.4545 0.3636 0.0000  plane waves:     557
 k-point  21 :   0.4545 0.4545 0.0000  plane waves:     556
 k-point  22 :   0.0909 0.0909 0.0909  plane waves:     543
 k-point  23 :   0.1818 0.0909 0.0909  plane waves:     554
 k-point  24 :   0.2727 0.0909 0.0909  plane waves:     544
 k-point  25 :   0.3636 0.0909 0.0909  plane waves:     553
 k-point  26 :   0.4545 0.0909 0.0909  plane waves:     558
 k-point  27 :   0.1818 0.1818 0.0909  plane waves:     549
 k-point  28 :   0.2727 0.1818 0.0909  plane waves:     546
 k-point  29 :   0.3636 0.1818 0.0909  plane waves:     555
 k-point  30 :   0.4545 0.1818 0.0909  plane waves:     555
 k-point  31 :   0.2727 0.2727 0.0909  plane waves:     554
 k-point  32 :   0.3636 0.2727 0.0909  plane waves:     552
 k-point  33 :   0.4545 0.2727 0.0909  plane waves:     556
 k-point  34 :   0.3636 0.3636 0.0909  plane waves:     553
 k-point  35 :   0.4545 0.3636 0.0909  plane waves:     553
 k-point  36 :   0.4545 0.4545 0.0909  plane waves:     553
 k-point  37 :   0.1818 0.1818 0.1818  plane waves:     549
 k-point  38 :   0.2727 0.1818 0.1818  plane waves:     556
 k-point  39 :   0.3636 0.1818 0.1818  plane waves:     558
 k-point  40 :   0.4545 0.1818 0.1818  plane waves:     556
 k-point  41 :   0.2727 0.2727 0.1818  plane waves:     551
 k-point  42 :   0.3636 0.2727 0.1818  plane waves:     559
 k-point  43 :   0.4545 0.2727 0.1818  plane waves:     561
 k-point  44 :   0.3636 0.3636 0.1818  plane waves:     553
 k-point  45 :   0.4545 0.3636 0.1818  plane waves:     557
 k-point  46 :   0.4545 0.4545 0.1818  plane waves:     559
 k-point  47 :   0.2727 0.2727 0.2727  plane waves:     558
 k-point  48 :   0.3636 0.2727 0.2727  plane waves:     561
 k-point  49 :   0.4545 0.2727 0.2727  plane waves:     563
 k-point  50 :   0.3636 0.3636 0.2727  plane waves:     557
 k-point  51 :   0.4545 0.3636 0.2727  plane waves:     560
 k-point  52 :   0.4545 0.4545 0.2727  plane waves:     554
 k-point  53 :   0.3636 0.3636 0.3636  plane waves:     552
 k-point  54 :   0.4545 0.3636 0.3636  plane waves:     562
 k-point  55 :   0.4545 0.4545 0.3636  plane waves:     559
 k-point  56 :   0.4545 0.4545 0.4545  plane waves:     555

 maximum number of plane-waves:       567
 maximum index in each direction: 
   IXMAX=    5   IYMAX=    5   IZMAX=    5
   IXMIN=   -5   IYMIN=   -5   IZMIN=   -5


 total amount of memory used by VASP MPI-rank0    59377. kBytes
=======================================================================

   base      :      30000. kBytes
   nonl-proj :       4608. kBytes
   grid      :       1806. kBytes
   one-center:         62. kBytes
   wavefun   :      22901. kBytes
 
     INWAV:  cpu time    0.0000: real time    0.0000
 Broyden mixing: mesh for mixing (old mesh)
   NGX = 11   NGY = 11   NGZ = 11
  (NGX  = 32   NGY  = 32   NGZ  = 32)
  gives a total of   1331 points

 initial charge density was supplied:
 charge density of overlapping atoms calculated
 number of electron      32.0000000 magnetization 
 keeping initial charge density in first step


--------------------------------------------------------------------------------------------------------


 Maximum index for augmentation-charges         2969 (set IRDMAX)


--------------------------------------------------------------------------------------------------------


 First call to EWALD:  gamma=   0.491
 Maximum number of real-space cells 3x 3x 3
 Maximum number of reciprocal cells 3x 3x 3

    FEWALD:  cpu time    0.0009: real time    0.0009


--------------------------------------- Iteration      1(   1)  ---------------------------------------


    POTLOK:  cpu time    0.0074: real time    0.0074
    SETDIJ:  cpu time    0.0040: real time    0.0040
     EDDAV:  cpu time    0.9444: real time    0.9459
       DOS:  cpu time    0.0041: real time    0.0041
    --------------------------------------------
      LOOP:  cpu time    0.9599: real time    0.9615

 eigenvalue-minimisations  :  4776
 total energy-change (2. order) : 0.1621556E+03  (-0.8514766E+03)
 number of electron      32.0000000 magnetization 
 augmentation part       32.0000000 magnetization 

 Free energy of the ion-electron system (eV)
  ---------------------------------------------------
  alpha Z        PSCENC =       235.17312753
  Ewald energy   TEWEN  =     -2341.31592877
  -Hartree energ DENC   =      -456.95672727
  -exchange      EXHF   =         0.00000000
  -V(xc)+E(xc)   XCENC  =        15.25050787
  PAW double counting   =      2219.38341365    -2250.19294531
  entropy T*S    EENTRO =         0.00155356
  eigenvalues    EBANDS =       363.65912864
  atomic energy  EATOM  =      2377.15350596
  Solvation  Ediel_sol  =         0.00000000
  ---------------------------------------------------
  free energy    TOTEN  =       162.15563588 eV

  energy without entropy =      162.15408231  energy(sigma->0) =      162.15511802


--------------------------------------------------------------------------------------------------------




--------------------------------------- Iteration      1(   2)  ---------------------------------------


     EDDAV:  cpu time    0.8542: real time    0.8542
       DOS:  cpu time    0.0045: real time    0.0045
    --------------------------------------------
      LOOP:  cpu time    0.8587: real time    0.8587

 eigenvalue-minimisations  :  4576
 total energy-change (2. order) :-0.1881807E+03  (-0.1659864E+03)
 number of electron      32.0000000 magnetization 
 augmentation part       32.0000000 magnetization 

 Free energy of the ion-electron system (eV)
  ---------------------------------------------------
  alpha Z        PSCENC =       235.17312753
  Ewald energy   TEWEN  =     -2341.31592877
  -Hartree energ DENC   =      -456.95672727
  -exchange      EXHF   =         0.00000000
  -V(xc)+E(xc)   XCENC  =        15.25050787
  PAW double counting   =      2219.38341365    -2250.19294531
  entropy T*S    EENTRO =        -0.00082127
  eigenvalues    EBANDS =       175.48075500
  atomic energy  EATOM  =      2377.15350596
  Solvation  Ediel_sol  =         0.00000000
  ---------------------------------------------------
  free energy    TOTEN  =       -26.02511260 eV

  energy without entropy =      -26.02429133  energy(sigma->0) =      -26.02483885


--------------------------------------------------------------------------------------------------------




--------------------------------------- Iteration      1(   3)  ---------------------------------------


     EDDAV:  cpu time    0.9424: real time    0.9425
       DOS:  cpu time    0.0053: real time    0.0053
    --------------------------------------------
      LOOP:  cpu time    0.9478: real time    0.9478

 eigenvalue-minimisations  :  5184
 total energy-change (2. order) :-0.1215509E+02  (-0.1091784E+02)
 number of electron      32.0000000 magnetization 
 augmentation part       32.0000000 magnetization 

 Free energy of the ion-electron system (eV)
  ---------------------------------------------------
  alpha Z        PSCENC =       235.17312753
  Ewald energy   TEWEN  =     -2341.31592877
  -Hartree energ DENC   =      -456.95672727
  -exchange      EXHF   =         0.00000000
  -V(xc)+E(xc)   XCENC  =        15.25050787
  PAW double counting   =      2219.38341365    -2250.19294531
  entropy T*S    EENTRO =         0.00722670
  eigenvalues    EBANDS =       163.31762052
  atomic energy  EATOM  =      2377.15350596
  Solvation  Ediel_sol  =         0.00000000
  ---------------------------------------------------
  free energy    TOTEN  =       -38.18019911 eV

  energy without entropy =      -38.18742581  energy(sigma->0) =      -38.18260801


--------------------------------------------------------------------------------------------------------




--------------------------------------- Iteration      1(   4)  ---------------------------------------


     EDDAV:  cpu time    0.8888: real time    0.8888
       DOS:  cpu time    0.0055: real time    0.0055
    --------------------------------------------
      LOOP:  cpu time    0.8943: real time    0.8943

 eigenvalue-minimisations  :  4888
 total energy-change (2. order) :-0.1559761E+00  (-0.1556414E+00)
 number of electron      32.0000000 magnetization 
 augmentation part       32.0000000 magnetization 

 Free energy of the ion-electron system (eV)
  ---------------------------------------------------
  alpha Z        PSCENC =       235.17312753
  Ewald energy   TEWEN  =     -2341.31592877
  -Hartree energ DENC   =      -456.95672727
  -exchange      EXHF   =         0.00000000
  -V(xc)+E(xc)   XCENC  =        15.25050787
  PAW double counting   =      2219.38341365    -2250.19294531
  entropy T*S    EENTRO =         0.00752315
  eigenvalues    EBANDS =       163.16134798
  atomic energy  EATOM  =      2377.15350596
  Solvation  Ediel_sol  =         0.00000000
  ---------------------------------------------------
  free energy    TOTEN  =       -38.33617520 eV

  energy without entropy =      -38.34369835  energy(sigma->0) =      -38.33868291


--------------------------------------------------------------------------------------------------------




--------------------------------------- Iteration      1(   5)  ---------------------------------------


     EDDAV:  cpu time    0.9129: real time    0.9130
       DOS:  cpu time    0.0053: real time    0.0053
    CHARGE:  cpu time    0.0481: real time    0.0481
    MIXING:  cpu time    0.0003: real time    0.0003
    --------------------------------------------
      LOOP:  cpu time    0.9666: real time    0.9667

 eigenvalue-minimisations  :  5048
 total energy-change (2. order) :-0.1455864E-02  (-0.1455837E-02)
 number of electron      31.9999651 magnetization 
 augmentation part       13.9766864 magnetization 

 Broyden mixing:
  rms(total) = 0.21539E+01    rms(broyden)= 0.21537E+01
  rms(prec ) = 0.46600E+01
  weight for this iteration     100.00

 Free energy of the ion-electron system (eV)
  ---------------------------------------------------
  alpha Z        PSCENC =       235.17312753
  Ewald energy   TEWEN  =     -2341.31592877
  -Hartree energ DENC   =      -456.95672727
  -exchange      EXHF   =         0.00000000
  -V(xc)+E(xc)   XCENC  =        15.25050787
  PAW double counting   =      2219.38341365    -2250.19294531
  entropy T*S    EENTRO =         0.00752353
  eigenvalues    EBANDS =       163.15989174
  atomic energy  EATOM  =      2377.15350596
  Solvation  Ediel_sol  =         0.00000000
  ---------------------------------------------------
  free energy    TOTEN  =       -38.33763106 eV

  energy without entropy =      -38.34515459  energy(sigma->0) =      -38.34013890


--------------------------------------------------------------------------------------------------------




--------------------------------------- Iteration      1(   6)  ---------------------------------------


    POTLOK:  cpu time    0.0071: real time    0.0071
    SETDIJ:  cpu time    0.0040: real time    0.0040
     EDDAV:  cpu time    0.9115: real time    0.9115
       DOS:  cpu time    0.0056: real time    0.0056
    CHARGE:  cpu time    0.0481: real time    0.0481
    MIXING:  cpu time    0.0004: real time    0.0004
    --------------------------------------------
      LOOP:  cpu time    0.9767: real time    0.9767

 eigenvalue-minimisations  :  5072
 total energy-change (2. order) : 0.5804511E+01  (-0.1735055E+01)
 number of electron      31.9999564 magnetization 
 augmentation part       17.4504948 magnetization 

 Broyden mixing:
  rms(total) = 0.70043E+00    rms(broyden)= 0.70014E+00
  rms(prec ) = 0.13285E+01
  weight for this iteration     100.00

 eigenvalues of (default mixing * dielectric matrix)
  average eigenvalue GAMMA=   0.8026
  0.8026

 Free energy of the ion-electron system (eV)
  ---------------------------------------------------
  alpha Z        PSCENC =       235.17312753
  Ewald energy   TEWEN  =     -2341.31592877
  -Hartree energ DENC   =      -379.82493404
  -exchange      EXHF   =         0.00000000
  -V(xc)+E(xc)   XCENC  =        11.50691965
  PAW double counting   =      2362.28996510    -2381.91351607
  entropy T*S    EENTRO =         0.00311980
  eigenvalues    EBANDS =        84.39462108
  atomic energy  EATOM  =      2377.15350596
  Solvation  Ediel_sol  =         0.00000000
  ---------------------------------------------------
  free energy    TOTEN  =       -32.53311975 eV

  energy without entropy =      -32.53623955  energy(sigma->0) =      -32.53415969


--------------------------------------------------------------------------------------------------------




--------------------------------------- Iteration      1(   7)  ---------------------------------------


    POTLOK:  cpu time    0.0070: real time    0.0070
    SETDIJ:  cpu time    0.0041: real time    0.0041
     EDDAV:  cpu time    0.9571: real time    0.9572
       DOS:  cpu time    0.0055: real time    0.0055
    CHARGE:  cpu time    0.0475: real time    0.0475
    MIXING:  cpu time    0.0004: real time    0.0004
    --------------------------------------------
      LOOP:  cpu time    1.0216: real time    1.0217

 eigenvalue-minimisations  :  5392
 total energy-change (2. order) : 0.7581476E+00  (-0.2145726E+00)
 number of electron      31.9999590 magnetization 
 augmentation part       16.4045323 magnetization 

 Broyden mixing:
  rms(total) = 0.13463E+00    rms(broyden)= 0.13457E+00
  rms(prec ) = 0.33872E+00
  weight for this iteration     100.00

 eigenvalues of (default mixing * dielectric matrix)
  average eigenvalue GAMMA=   0.8897
  1.0939  0.6855

 Free energy of the ion-electron system (eV)
  ---------------------------------------------------
  alpha Z        PSCENC =       235.17312753
  Ewald energy   TEWEN  =     -2341.31592877
  -Hartree energ DENC   =      -395.75818102
  -exchange      EXHF   =         0.00000000
  -V(xc)+E(xc)   XCENC  =        12.36566817
  PAW double counting   =      2494.98294984    -2522.48093917
  entropy T*S    EENTRO =         0.00650883
  eigenvalues    EBANDS =       108.09831647
  atomic energy  EATOM  =      2377.15350596
  Solvation  Ediel_sol  =         0.00000000
  ---------------------------------------------------
  free energy    TOTEN  =       -31.77497216 eV

  energy without entropy =      -31.78148099  energy(sigma->0) =      -31.77714177


--------------------------------------------------------------------------------------------------------




--------------------------------------- Iteration      1(   8)  ---------------------------------------


    POTLOK:  cpu time    0.0070: real time    0.0070
    SETDIJ:  cpu time    0.0041: real time    0.0041
     EDDAV:  cpu time    1.0391: real time    1.0392
       DOS:  cpu time    0.0055: real time    0.0055
    CHARGE:  cpu time    0.0481: real time    0.0481
    MIXING:  cpu time    0.0004: real time    0.0004
    --------------------------------------------
      LOOP:  cpu time    1.1042: real time    1.1042

 eigenvalue-minimisations  :  6000
 total energy-change (2. order) : 0.4583832E-01  (-0.1712751E-02)
 number of electron      31.9999588 magnetization 
 augmentation part       16.4803394 magnetization 

 Broyden mixing:
  rms(total) = 0.64085E-01    rms(broyden)= 0.64082E-01
  rms(prec ) = 0.15707E+00
  weight for this iteration     100.00

 eigenvalues of (default mixing * dielectric matrix)
  average eigenvalue GAMMA=   1.4255
  0.7145  1.0587  2.5034

 Free energy of the ion-electron system (eV)
  ---------------------------------------------------
  alpha Z        PSCENC =       235.17312753
  Ewald energy   TEWEN  =     -2341.31592877
  -Hartree energ DENC   =      -391.55579155
  -exchange      EXHF   =         0.00000000
  -V(xc)+E(xc)   XCENC  =        12.20227665
  PAW double counting   =      2569.87499068    -2599.61998318
  entropy T*S    EENTRO =         0.00588217
  eigenvalues    EBANDS =       106.35278667
  atomic energy  EATOM  =      2377.15350596
  Solvation  Ediel_sol  =         0.00000000
  ---------------------------------------------------
  free energy    TOTEN  =       -31.72913383 eV

  energy without entropy =      -31.73501600  energy(sigma->0) =      -31.73109456


--------------------------------------------------------------------------------------------------------




--------------------------------------- Iteration      1(   9)  ---------------------------------------


    POTLOK:  cpu time    0.0070: real time    0.0070
    SETDIJ:  cpu time    0.0041: real time    0.0041
     EDDAV:  cpu time    1.0521: real time    1.0522
       DOS:  cpu time    0.0055: real time    0.0055
    CHARGE:  cpu time    0.0477: real time    0.0477
    MIXING:  cpu time    0.0004: real time    0.0004
    --------------------------------------------
      LOOP:  cpu time    1.1168: real time    1.1169

 eigenvalue-minimisations  :  6096
 total energy-change (2. order) : 0.1994331E-01  (-0.3012122E-03)
 number of electron      31.9999587 magnetization 
 augmentation part       16.5269640 magnetization 

 Broyden mixing:
  rms(total) = 0.11000E-01    rms(broyden)= 0.10998E-01
  rms(prec ) = 0.15240E-01
  weight for this iteration     100.00

 eigenvalues of (default mixing * dielectric matrix)
  average eigenvalue GAMMA=   1.3304
  2.4116  0.7140  1.2363  0.9596

 Free energy of the ion-electron system (eV)
  ---------------------------------------------------
  alpha Z        PSCENC =       235.17312753
  Ewald energy   TEWEN  =     -2341.31592877
  -Hartree energ DENC   =      -386.93166640
  -exchange      EXHF   =         0.00000000
  -V(xc)+E(xc)   XCENC  =        12.04272176
  PAW double counting   =      2679.26646797    -2712.45471676
  entropy T*S    EENTRO =         0.00527644
  eigenvalues    EBANDS =       105.35202174
  atomic energy  EATOM  =      2377.15350596
  Solvation  Ediel_sol  =         0.00000000
  ---------------------------------------------------
  free energy    TOTEN  =       -31.70919052 eV

  energy without entropy =      -31.71446696  energy(sigma->0) =      -31.71094934


--------------------------------------------------------------------------------------------------------




--------------------------------------- Iteration      1(  10)  ---------------------------------------


    POTLOK:  cpu time    0.0070: real time    0.0070
    SETDIJ:  cpu time    0.0040: real time    0.0040
     EDDAV:  cpu time    0.9034: real time    0.9034
       DOS:  cpu time    0.0056: real time    0.0056
    CHARGE:  cpu time    0.0480: real time    0.0480
    MIXING:  cpu time    0.0004: real time    0.0004
    --------------------------------------------
      LOOP:  cpu time    0.9684: real time    0.9684

 eigenvalue-minimisations  :  4992
 total energy-change (2. order) :-0.7405827E-04  (-0.9920030E-04)
 number of electron      31.9999587 magnetization 
 augmentation part       16.5208099 magnetization 

 Broyden mixing:
  rms(total) = 0.56967E-02    rms(broyden)= 0.56966E-02
  rms(prec ) = 0.59970E-02
  weight for this iteration     100.00

 eigenvalues of (default mixing * dielectric matrix)
  average eigenvalue GAMMA=   1.7143
  2.9183  2.9183  1.0964  0.9216  0.7171

 Free energy of the ion-electron system (eV)
  ---------------------------------------------------
  alpha Z        PSCENC =       235.17312753
  Ewald energy   TEWEN  =     -2341.31592877
  -Hartree energ DENC   =      -387.20528897
  -exchange      EXHF   =         0.00000000
  -V(xc)+E(xc)   XCENC  =        12.05406467
  PAW double counting   =      2676.00173753    -2709.01724817
  entropy T*S    EENTRO =         0.00532032
  eigenvalues    EBANDS =       105.44144532
  atomic energy  EATOM  =      2377.15350596
  Solvation  Ediel_sol  =         0.00000000
  ---------------------------------------------------
  free energy    TOTEN  =       -31.70926458 eV

  energy without entropy =      -31.71458490  energy(sigma->0) =      -31.71103802


--------------------------------------------------------------------------------------------------------




--------------------------------------- Iteration      1(  11)  ---------------------------------------


    POTLOK:  cpu time    0.0069: real time    0.0069
    SETDIJ:  cpu time    0.0041: real time    0.0041
     EDDAV:  cpu time    0.9225: real time    0.9226
       DOS:  cpu time    0.0055: real time    0.0055
    CHARGE:  cpu time    0.0475: real time    0.0475
    MIXING:  cpu time    0.0004: real time    0.0004
    --------------------------------------------
      LOOP:  cpu time    0.9870: real time    0.9870

 eigenvalue-minimisations  :  5096
 total energy-change (2. order) :-0.1644279E-04  (-0.3016311E-05)
 number of electron      31.9999587 magnetization 
 augmentation part       16.5247978 magnetization 

 Broyden mixing:
  rms(total) = 0.25653E-02    rms(broyden)= 0.25650E-02
  rms(prec ) = 0.31249E-02
  weight for this iteration     100.00

 eigenvalues of (default mixing * dielectric matrix)
  average eigenvalue GAMMA=   1.4852
  2.5600  2.5600  0.7184  1.1719  1.0293  0.8717

 Free energy of the ion-electron system (eV)
  ---------------------------------------------------
  alpha Z        PSCENC =       235.17312753
  Ewald energy   TEWEN  =     -2341.31592877
  -Hartree energ DENC   =      -387.37001799
  -exchange      EXHF   =         0.00000000
  -V(xc)+E(xc)   XCENC  =        12.05953829
  PAW double counting   =      2674.17163923    -2706.93490203
  entropy T*S    EENTRO =         0.00528451
  eigenvalues    EBANDS =       105.34847225
  atomic energy  EATOM  =      2377.15350596
  Solvation  Ediel_sol  =         0.00000000
  ---------------------------------------------------
  free energy    TOTEN  =       -31.70928102 eV

  energy without entropy =      -31.71456553  energy(sigma->0) =      -31.71104252


--------------------------------------------------------------------------------------------------------




--------------------------------------- Iteration      1(  12)  ---------------------------------------


    POTLOK:  cpu time    0.0069: real time    0.0069
    SETDIJ:  cpu time    0.0040: real time    0.0040
     EDDAV:  cpu time    0.9419: real time    0.9419
       DOS:  cpu time    0.0055: real time    0.0055
    CHARGE:  cpu time    0.0478: real time    0.0478
    MIXING:  cpu time    0.0005: real time    0.0005
    --------------------------------------------
      LOOP:  cpu time    1.0065: real time    1.0065

 eigenvalue-minimisations  :  5296
 total energy-change (2. order) : 0.1040884E-04  (-0.1594433E-05)
 number of electron      31.9999587 magnetization 
 augmentation part       16.5229533 magnetization 

 Broyden mixing:
  rms(total) = 0.31693E-03    rms(broyden)= 0.31684E-03
  rms(prec ) = 0.37125E-03
  weight for this iteration     100.00

 eigenvalues of (default mixing * dielectric matrix)
  average eigenvalue GAMMA=   1.4400
  2.5313  2.5313  1.4230  0.7182  1.0182  0.9291  0.9291

 Free energy of the ion-electron system (eV)
  ---------------------------------------------------
  alpha Z        PSCENC =       235.17312753
  Ewald energy   TEWEN  =     -2341.31592877
  -Hartree energ DENC   =      -387.26467063
  -exchange      EXHF   =         0.00000000
  -V(xc)+E(xc)   XCENC  =        12.05656976
  PAW double counting   =      2677.56276427    -2710.47215835
  entropy T*S    EENTRO =         0.00529684
  eigenvalues    EBANDS =       105.39222277
  atomic energy  EATOM  =      2377.15350596
  Solvation  Ediel_sol  =         0.00000000
  ---------------------------------------------------
  free energy    TOTEN  =       -31.70927061 eV

  energy without entropy =      -31.71456746  energy(sigma->0) =      -31.71103623


--------------------------------------------------------------------------------------------------------




--------------------------------------- Iteration      1(  13)  ---------------------------------------


    POTLOK:  cpu time    0.0069: real time    0.0069
    SETDIJ:  cpu time    0.0040: real time    0.0040
     EDDAV:  cpu time    0.6355: real time    0.6355
       DOS:  cpu time    0.0055: real time    0.0055
    CHARGE:  cpu time    0.0480: real time    0.0480
    MIXING:  cpu time    0.0005: real time    0.0005
    --------------------------------------------
      LOOP:  cpu time    0.7005: real time    0.7006

 eigenvalue-minimisations  :  2936
 total energy-change (2. order) :-0.1634411E-05  (-0.2066242E-07)
 number of electron      31.9999587 magnetization 
 augmentation part       16.5229037 magnetization 

 Broyden mixing:
  rms(total) = 0.73110E-04    rms(broyden)= 0.73011E-04
  rms(prec ) = 0.83119E-04
  weight for this iteration     100.00

 eigenvalues of (default mixing * dielectric matrix)
  average eigenvalue GAMMA=   1.6064
  3.0918  2.4902  2.4902  0.7184  1.1515  1.0594  0.9759  0.8741

 Free energy of the ion-electron system (eV)
  ---------------------------------------------------
  alpha Z        PSCENC =       235.17312753
  Ewald energy   TEWEN  =     -2341.31592877
  -Hartree energ DENC   =      -387.25345265
  -exchange      EXHF   =         0.00000000
  -V(xc)+E(xc)   XCENC  =        12.05616003
  PAW double counting   =      2677.89639370    -2710.81784159
  entropy T*S    EENTRO =         0.00529683
  eigenvalues    EBANDS =       105.39346670
  atomic energy  EATOM  =      2377.15350596
  Solvation  Ediel_sol  =         0.00000000
  ---------------------------------------------------
  free energy    TOTEN  =       -31.70927225 eV

  energy without entropy =      -31.71456908  energy(sigma->0) =      -31.71103786


--------------------------------------------------------------------------------------------------------




--------------------------------------- Iteration      1(  14)  ---------------------------------------


    POTLOK:  cpu time    0.0070: real time    0.0070
    SETDIJ:  cpu time    0.0041: real time    0.0041
     EDDAV:  cpu time    0.6339: real time    0.6339
       DOS:  cpu time    0.0057: real time    0.0057
    --------------------------------------------
      LOOP:  cpu time    0.6507: real time    0.6507

 eigenvalue-minimisations  :  2624
 total energy-change (2. order) :-0.2353158E-06  (-0.3726535E-08)
 number of electron      31.9999587 magnetization 
 augmentation part       16.5229037 magnetization 

 Free energy of the ion-electron system (eV)
  ---------------------------------------------------
  alpha Z        PSCENC =       235.17312753
  Ewald energy   TEWEN  =     -2341.31592877
  -Hartree energ DENC   =      -387.25254387
  -exchange      EXHF   =         0.00000000
  -V(xc)+E(xc)   XCENC  =        12.05609218
  PAW double counting   =      2678.00798582    -2710.92927827
  entropy T*S    EENTRO =         0.00529637
  eigenvalues    EBANDS =       105.39247057
  atomic energy  EATOM  =      2377.15350596
  Solvation  Ediel_sol  =         0.00000000
  ---------------------------------------------------
  free energy    TOTEN  =       -31.70927248 eV

  energy without entropy =      -31.71456885  energy(sigma->0) =      -31.71103794


--------------------------------------------------------------------------------------------------------




 average (electrostatic) potential at core
  the test charge radii are     1.0103
  (the norm of the test charge is              1.0000)
       1 -44.0085       2 -44.0085       3 -44.0085       4 -44.0085
 
 
 
 E-fermi :   5.3435     XC(G=0): -12.9791     alpha+bet :-13.1858

 Fermi energy:         5.3435334825

 k-point     1 :       0.0000    0.0000    0.0000
  band No.  band energies     occupation 
      1      -2.7037      2.00000
      2       1.2787      2.00000
      3       1.2787      2.00000
      4       1.2787      2.00000
      5       1.9152      2.00000
      6       1.9152      2.00000
      7       1.9152      2.00000
      8       4.0175      2.00000
      9       4.0175      2.00000
     10       4.0175      2.00000
     11       5.2838      1.48114
     12       5.2838      1.48114
     13       6.1273     -0.00000
     14       6.1273     -0.00000
     15       6.1273     -0.00000
     16       6.3718     -0.00000
     17       6.3718     -0.00000
     18       6.3718     -0.00000
     19       6.3718     -0.00000
     20       6.3718     -0.00000
     21       6.3718     -0.00000
     22       8.2823     -0.00000
     23       8.2823     -0.00000
     24       8.2823     -0.00000
     25      15.6352      0.00000
     26      15.6352      0.00000
     27      15.6352      0.00000
     28      20.1462      0.00000
     29      20.1462      0.00000
     30      20.1462      0.00000
     31      20.1462      0.00000
     32      20.1462      0.00000
     33      20.1462      0.00000
     34      25.0937      0.00000
     35      25.0937      0.00000
     36      25.0937      0.00000
     37      27.5053      0.00000
     38      28.9602      0.00000
     39      28.9602      0.00000
     40      28.9602      0.00000

 k-point     2 :       0.0909    0.0000    0.0000
  band No.  band energies     occupation 
      1      -2.5983      2.00000
      2       1.2927      2.00000
      3       1.3405      2.00000
      4       1.3405      2.00000
      5       1.9532      2.00000
      6       1.9573      2.00000
      7       1.9573      2.00000
      8       3.9695      2.00000
      9       4.0527      2.00000
     10       4.0527      2.00000
     11       5.2400      1.75953
     12       5.3002      1.35696
     13       6.0049     -0.00003
     14       6.0049     -0.00003
     15       6.0680     -0.00000
     16       6.0680     -0.00000
     17       6.1093     -0.00000
     18       6.3033     -0.00000
     19       6.3033     -0.00000
     20       6.3709     -0.00000
     21       6.3709     -0.00000
     22       7.8195     -0.00000
     23       8.7275     -0.00000
     24       8.7275     -0.00000
     25      15.6415      0.00000
     26      15.6415      0.00000
     27      16.2558      0.00000
     28      19.6255      0.00000
     29      19.6255      0.00000
     30      19.8471      0.00000
     31      19.8471      0.00000
     32      20.3192      0.00000
     33      20.3192      0.00000
     34      25.1113      0.00000
     35      25.7102      0.00000
     36      25.7102      0.00000
     37      27.3730      0.00000
     38      28.9949      0.00000
     39      29.5019      0.00000
     40      29.5019      0.00000

 k-point     3 :       0.1818    0.0000    0.0000
  band No.  band energies     occupation 
      1      -2.2865      2.00000
      2       1.3113      2.00000
      3       1.5158      2.00000
      4       1.5158      2.00000
      5       2.0652      2.00000
      6       2.0839      2.00000
      7       2.0839      2.00000
      8       3.8310      2.00000
      9       4.1572      2.00000
     10       4.1572      2.00000
     11       5.1130      2.06916
     12       5.3278      1.13231
     13       5.3278      1.13231
     14       5.3483      0.95953
     15       5.9014     -0.00058
     16       5.9014     -0.00058
     17       6.0578     -0.00001
     18       6.1147     -0.00000
     19       6.1147     -0.00000
     20       6.3711     -0.00000
     21       6.3711     -0.00000
     22       6.7875     -0.00000
     23       9.6423     -0.00000
     24       9.6423     -0.00000
     25      15.6765      0.00000
     26      15.6765      0.00000
     27      17.7831      0.00000
     28      18.4835      0.00000
     29      18.4835      0.00000
     30      19.1492      0.00000
     31      19.1492      0.00000
     32      20.8240      0.00000
     33      20.8240      0.00000
     34      25.1723      0.00000
     35      27.0437      0.00000
     36      27.1555      0.00000
     37      27.1555      0.00000
     38      29.1237      0.00000
     39      29.8885      0.00000
     40      29.8885      0.00000

 k-point     4 :       0.2727    0.0000    0.0000
  band No.  band energies     occupation 
      1      -1.7825      2.00000
      2       1.2556      2.00000
      3       1.7721      2.00000
      4       1.7721      2.00000
      5       2.2445      2.00000
      6       2.2959      2.00000
      7       2.2959      2.00000
      8       3.6171      2.00000
      9       4.3287      2.00000
     10       4.3287      2.00000
     11       4.6386      2.00001
     12       4.6386      2.00001
     13       4.9241      2.01153
     14       5.4245      0.37283
     15       5.6539     -0.05058
     16       5.6539     -0.05058
     17       5.7010     -0.02986
     18       5.8366     -0.00270
     19       5.8366     -0.00270
     20       5.9767     -0.00007
     21       6.3714     -0.00000
     22       6.3714     -0.00000
     23      10.7252     -0.00000
     24      10.7252     -0.00000
     25      15.7412      0.00000
     26      15.7412      0.00000
     27      17.1558      0.00000
     28      17.1558      0.00000
     29      18.3749      0.00000
     30      18.3749      0.00000
     31      19.7384      0.00000
     32      21.6227      0.00000
     33      21.6227      0.00000
     34      25.2783      0.00000
     35      26.6420      0.00000
     36      28.3433      0.00000
     37      28.3433      0.00000
     38      28.7847      0.00000
     39      28.9952      0.00000
     40      28.9952      0.00000

 k-point     5 :       0.3636    0.0000    0.0000
  band No.  band energies     occupation 
      1      -1.1162      2.00000
      2       0.9858      2.00000
      3       2.0458      2.00000
      4       2.0458      2.00000
      5       2.4802      2.00000
      6       2.5941      2.00000
      7       2.5941      2.00000
      8       3.3498      2.00000
      9       4.0064      2.00000
     10       4.0064      2.00000
     11       4.5613      2.00000
     12       4.5613      2.00000
     13       4.7109      2.00007
     14       4.9008      2.00755
     15       5.3859      0.65060
     16       5.3859      0.65060
     17       5.5092      0.00622
     18       5.5092      0.00622
     19       5.5233     -0.02235
     20       5.8735     -0.00116
     21       6.3718     -0.00000
     22       6.3718     -0.00000
     23      11.9036      0.00000
     24      11.9036      0.00000
     25      15.7951      0.00000
     26      15.7951      0.00000
     27      15.8342      0.00000
     28      15.8342      0.00000
     29      17.7316      0.00000
     30      17.7316      0.00000
     31      21.8387      0.00000
     32      22.6665      0.00000
     33      22.6665      0.00000
     34      25.4348      0.00000
     35      26.2515      0.00000
     36      26.7891      0.00000
     37      26.7891      0.00000
     38      27.3468      0.00000
     39      29.9020      0.00000
     40      31.0851      0.00000

 k-point     6 :       0.4545    0.0000    0.0000
  band No.  band energies     occupation 
      1      -0.3459      2.00000
      2       0.4145      2.00000
      3       2.2343      2.00000
      4       2.2343      2.00000
      5       2.7568      2.00000
      6       2.9792      2.00000
      7       2.9792      2.00000
      8       3.0545      2.00000
      9       3.4508      2.00000
     10       3.4508      2.00000
     11       4.5435      2.00000
     12       4.5462      2.00000
     13       4.8465      2.00248
     14       4.8465      2.00248
     15       5.1694      2.01195
     16       5.1694      2.01195
     17       5.1990      1.93498
     18       5.1990      1.93498
     19       5.6374     -0.05801
     20       5.7572     -0.01275
     21       6.3718     -0.00000
     22       6.3718     -0.00000
     23      13.1494      0.00000
     24      13.1494      0.00000
     25      14.4516      0.00000
     26      14.4516      0.00000
     27      15.9208      0.00000
     28      15.9208      0.00000
     29      17.3507      0.00000
     30      17.3507      0.00000
     31      23.8999      0.00000
     32      23.9070      0.00000
     33      23.9070      0.00000
     34      25.2977      0.00000
     35      25.2977      0.00000
     36      25.6482      0.00000
     37      25.7527      0.00000
     38      25.9242      0.00000
     39      30.7902      0.00000
     40      32.2087      0.00000

 k-point     7 :       0.0909    0.0909    0.0000
  band No.  band energies     occupation 
      1      -2.4938      2.00000
      2       1.3555      2.00000
      3       1.3555      2.00000
      4       1.4006      2.00000
      5       1.9944      2.00000
      6       1.9944      2.00000
      7       1.9978      2.00000
      8       3.9412      2.00000
      9       4.0695      2.00000
     10       4.0834      2.00000
     11       5.2271      1.82373
     12       5.2896      1.43853
     13       5.7694     -0.01029
     14       5.8824     -0.00093
     15       5.8824     -0.00093
     16       6.0132     -0.00002
     17       6.0788     -0.00000
     18       6.0788     -0.00000
     19       6.3032     -0.00000
     20       6.3032     -0.00000
     21       6.3289     -0.00000
     22       8.2802     -0.00000
     23       8.2802     -0.00000
     24       9.0846     -0.00000
     25      15.6463      0.00000
     26      16.2774      0.00000
     27      16.2774      0.00000
     28      18.5242      0.00000
     29      19.7860      0.00000
     30      19.7860      0.00000
     31      20.0125      0.00000
     32      20.0125      0.00000
     33      20.4842      0.00000
     34      25.7434      0.00000
     35      25.7434      0.00000
     36      25.8738      0.00000
     37      27.1449      0.00000
     38      29.5432      0.00000
     39      29.5432      0.00000
     40      29.9027      0.00000

 k-point     8 :       0.1818    0.0909    0.0000
  band No.  band energies     occupation 
      1      -2.1844      2.00000
      2       1.3776      2.00000
      3       1.5344      2.00000
      4       1.5718      2.00000
      5       2.1037      2.00000
      6       2.1183      2.00000
      7       2.1190      2.00000
      8       3.8168      2.00000
      9       4.1640      2.00000
     10       4.1736      2.00000
     11       5.1186      2.06741
     12       5.2092      1.89931
     13       5.2100      1.89624
     14       5.3345      1.07626
     15       5.5858     -0.07086
     16       5.8556     -0.00176
     17       5.9066     -0.00051
     18       6.0314     -0.00001
     19       6.1142     -0.00000
     20       6.3031     -0.00000
     21       6.3059     -0.00000
     22       7.3383     -0.00000
     23       9.1603     -0.00000
     24       9.9062     -0.00000
     25      15.6422      0.00000
     26      16.3490      0.00000
     27      17.2563      0.00000
     28      17.8158      0.00000
     29      18.6300      0.00000
     30      19.3009      0.00000
     31      20.2506      0.00000
     32      20.3805      0.00000
     33      20.4996      0.00000
     34      25.8477      0.00000
     35      26.5766      0.00000
     36      26.7482      0.00000
     37      27.2058      0.00000
     38      28.4063      0.00000
     39      29.6835      0.00000
     40      30.2823      0.00000

 k-point     9 :       0.2727    0.0909    0.0000
  band No.  band energies     occupation 
      1      -1.6845      2.00000
      2       1.3268      2.00000
      3       1.7972      2.00000
      4       1.8238      2.00000
      5       2.2787      2.00000
      6       2.3191      2.00000
      7       2.3256      2.00000
      8       3.6121      2.00000
      9       4.3119      2.00000
     10       4.3323      2.00000
     11       4.5336      2.00000
     12       4.5807      2.00000
     13       4.9517      2.01819
     14       5.1130      2.06916
     15       5.4223      0.38759
     16       5.6203     -0.06468
     17       5.6625     -0.04661
     18       5.8359     -0.00274
     19       5.9053     -0.00052
     20       6.3007     -0.00000
     21       6.3027     -0.00000
     22       6.4887     -0.00000
     23      10.1595     -0.00000
     24      10.9367      0.00000
     25      15.4071      0.00000
     26      16.3045      0.00000
     27      16.4717      0.00000
     28      17.2971      0.00000
     29      18.5245      0.00000
     30      19.7035      0.00000
     31      19.7422      0.00000
     32      20.9733      0.00000
     33      21.3039      0.00000
     34      25.8297      0.00000
     35      26.0342      0.00000
     36      26.9596      0.00000
     37      28.3493      0.00000
     38      29.0560      0.00000
     39      29.2225      0.00000
     40      29.9694      0.00000

 k-point    10 :       0.3636    0.0909    0.0000
  band No.  band energies     occupation 
      1      -1.0240      2.00000
      2       1.0614      2.00000
      3       2.0808      2.00000
      4       2.0978      2.00000
      5       2.5085      2.00000
      6       2.5938      2.00000
      7       2.6166      2.00000
      8       3.3536      2.00000
      9       3.9199      2.00000
     10       3.9824      2.00000
     11       4.4340      2.00000
     12       4.5632      2.00000
     13       4.6159      2.00000
     14       4.8318      2.00177
     15       5.3653      0.81739
     16       5.3957      0.57460
     17       5.5085      0.00775
     18       5.5383     -0.04443
     19       5.6307     -0.06079
     20       6.0335     -0.00001
     21       6.2994     -0.00000
     22       6.3023     -0.00000
     23      11.2111      0.00000
     24      12.0836      0.00000
     25      14.4803      0.00000
     26      15.9377      0.00000
     27      16.1791      0.00000
     28      16.6021      0.00000
     29      17.9386      0.00000
     30      18.9010      0.00000
     31      21.5928      0.00000
     32      21.8889      0.00000
     33      22.5753      0.00000
     34      24.9587      0.00000
     35      25.5815      0.00000
     36      26.3242      0.00000
     37      28.1947      0.00000
     38      28.4351      0.00000
     39      30.3616      0.00000
     40      30.4831      0.00000

 k-point    11 :       0.4545    0.0909    0.0000
  band No.  band energies     occupation 
      1      -0.2603      2.00000
      2       0.4941      2.00000
      3       2.2816      2.00000
      4       2.2888      2.00000
      5       2.7777      2.00000
      6       2.9451      2.00000
      7       2.9915      2.00000
      8       3.0671      2.00000
      9       3.3870      2.00000
     10       3.4484      2.00000
     11       4.3758      2.00000
     12       4.3922      2.00000
     13       4.8469      2.00250
     14       4.9668      2.02286
     15       5.1692      2.01243
     16       5.1918      1.95729
     17       5.2039      1.91855
     18       5.2702      1.57659
     19       5.6750     -0.04089
     20       5.8298     -0.00313
     21       6.2999     -0.00000
     22       6.3014     -0.00000
     23      12.2899      0.00000
     24      13.3109      0.00000
     25      13.3828      0.00000
     26      14.6017      0.00000
     27      16.3539      0.00000
     28      16.5698      0.00000
     29      17.8173      0.00000
     30      18.2155      0.00000
     31      22.9198      0.00000
     32      22.9827      0.00000
     33      23.9742      0.00000
     34      24.2622      0.00000
     35      24.4987      0.00000
     36      26.5385      0.00000
     37      26.7491      0.00000
     38      27.3579      0.00000
     39      31.3407      0.00000
     40      32.6033      0.00000

 k-point    12 :       0.1818    0.1818    0.0000
  band No.  band energies     occupation 
      1      -1.8825      2.00000
      2       1.5670      2.00000
      3       1.5670      2.00000
      4       1.7313      2.00000
      5       2.2195      2.00000
      6       2.2195      2.00000
      7       2.2231      2.00000
      8       3.7418      2.00000
      9       4.2204      2.00000
     10       4.2205      2.00000
     11       4.8729      2.00436
     12       4.9046      2.00811
     13       4.9046      2.00811
     14       5.0799      2.06855
     15       5.3546      0.90680
     16       5.7222     -0.02222
     17       5.8787     -0.00102
     18       5.8787     -0.00102
     19       6.1130     -0.00000
     20       6.1130     -0.00000
     21       6.2054     -0.00000
     22       8.1674     -0.00000
     23       8.1674     -0.00000
     24      10.5855     -0.00000
     25      15.2283      0.00000
     26      16.2558      0.00000
     27      17.9075      0.00000
     28      17.9075      0.00000
     29      19.0526      0.00000
     30      19.0526      0.00000
     31      19.7711      0.00000
     32      19.7711      0.00000
     33      21.4497      0.00000
     34      25.6378      0.00000
     35      26.4359      0.00000
     36      26.8794      0.00000
     37      27.3611      0.00000
     38      27.3611      0.00000
     39      30.7675      0.00000
     40      31.1216      0.00000

 k-point    13 :       0.2727    0.1818    0.0000
  band No.  band energies     occupation 
      1      -1.3954      2.00000
      2       1.5313      2.00000
      3       1.8489      2.00000
      4       1.9697      2.00000
      5       2.3810      2.00000
      6       2.3894      2.00000
      7       2.4124      2.00000
      8       3.5807      2.00000
      9       4.2700      2.00000
     10       4.2809      2.00000
     11       4.3619      2.00000
     12       4.4050      2.00000
     13       4.5083      2.00000
     14       4.9675      2.02308
     15       5.4667      0.14593
     16       5.5194     -0.01532
     17       5.6493     -0.05268
     18       5.7681     -0.01055
     19       5.8341     -0.00285
     20       6.1111     -0.00000
     21       6.1467     -0.00000
     22       7.2160     -0.00000
     23       9.0441     -0.00000
     24      11.5123      0.00000
     25      14.0945      0.00000
     26      16.1658      0.00000
     27      17.7044      0.00000
     28      17.9514      0.00000
     29      19.1032      0.00000
     30      19.6164      0.00000
     31      19.7068      0.00000
     32      20.7509      0.00000
     33      21.5195      0.00000
     34      24.5923      0.00000
     35      25.4586      0.00000
     36      27.2605      0.00000
     37      27.6293      0.00000
     38      29.2385      0.00000
     39      30.5867      0.00000
     40      31.4077      0.00000

 k-point    14 :       0.3636    0.1818    0.0000
  band No.  band energies     occupation 
      1      -0.7527      2.00000
      2       1.2789      2.00000
      3       2.1626      2.00000
      4       2.2437      2.00000
      5       2.5923      2.00000
      6       2.5971      2.00000
      7       2.6820      2.00000
      8       3.3572      2.00000
      9       3.7063      2.00000
     10       3.9075      2.00000
     11       4.1838      2.00000
     12       4.2875      2.00000
     13       4.5787      2.00000
     14       4.9084      2.00871
     15       5.2983      1.37187
     16       5.3914      0.60786
     17       5.5075      0.01003
     18       5.5548     -0.06004
     19       5.6378     -0.05781
     20       6.1092     -0.00000
     21       6.1208     -0.00000
     22       6.5393     -0.00000
     23       9.9458     -0.00000
     24      12.5896      0.00000
     25      12.9259      0.00000
     26      16.3416      0.00000
     27      16.3483      0.00000
     28      17.6183      0.00000
     29      19.0353      0.00000
     30      20.5347      0.00000
     31      20.8055      0.00000
     32      20.8927      0.00000
     33      22.6415      0.00000
     34      23.5394      0.00000
     35      24.1545      0.00000
     36      28.0180      0.00000
     37      29.0348      0.00000
     38      29.4947      0.00000
     39      29.9335      0.00000
     40      31.3515      0.00000

 k-point    15 :       0.4545    0.1818    0.0000
  band No.  band energies     occupation 
      1      -0.0104      2.00000
[...]
     40      31.4678      0.00000

 k-point    51 :       0.4545    0.3636    0.2727
  band No.  band energies     occupation 
      1       0.9960      2.00000
      2       1.3748      2.00000
      3       1.7649      2.00000
      4       1.8282      2.00000
      5       3.3748      2.00000
      6       3.4172      2.00000
      7       3.6324      2.00000
      8       3.8413      2.00000
      9       3.9771      2.00000
     10       4.0005      2.00000
     11       4.0731      2.00000
     12       4.1286      2.00000
     13       4.1801      2.00000
     14       4.2853      2.00000
     15       4.3748      2.00000
     16       4.3749      2.00000
     17       5.7799     -0.00851
     18       6.0130     -0.00002
     19       6.0504     -0.00001
     20       6.0525     -0.00001
     21       6.2524     -0.00000
     22       6.8271     -0.00000
     23       8.1766     -0.00000
     24       8.5879     -0.00000
     25      12.5810      0.00000
     26      13.0387      0.00000
     27      14.6329      0.00000
     28      15.5712      0.00000
     29      22.5166      0.00000
     30      23.1277      0.00000
     31      24.6642      0.00000
     32      24.9527      0.00000
     33      25.5284      0.00000
     34      25.5980      0.00000
     35      26.5346      0.00000
     36      28.1307      0.00000
     37      28.6061      0.00000
     38      29.1026      0.00000
     39      29.4948      0.00000
     40      30.4380      0.00000

 k-point    52 :       0.4545    0.4545    0.2727
  band No.  band energies     occupation 
      1       1.2400      2.00000
      2       1.4951      2.00000
      3       1.4951      2.00000
      4       1.6433      2.00000
      5       3.5831      2.00000
      6       3.6898      2.00000
      7       3.6898      2.00000
      8       3.8805      2.00000
      9       4.1260      2.00000
     10       4.1456      2.00000
     11       4.1551      2.00000
     12       4.1551      2.00000
     13       4.2381      2.00000
     14       4.2381      2.00000
     15       4.2447      2.00000
     16       4.2485      2.00000
     17       5.7839     -0.00789
     18       5.9285     -0.00028
     19       5.9285     -0.00028
     20       5.9641     -0.00010
     21       6.6740     -0.00000
     22       7.2886     -0.00000
     23       7.2886     -0.00000
     24       7.8801     -0.00000
     25      12.9886      0.00000
     26      13.6954      0.00000
     27      13.6954      0.00000
     28      14.5447      0.00000
     29      23.1924      0.00000
     30      23.9470      0.00000
     31      23.9470      0.00000
     32      24.7595      0.00000
     33      27.0337      0.00000
     34      27.0337      0.00000
     35      27.7097      0.00000
     36      27.7585      0.00000
     37      28.3397      0.00000
     38      29.4057      0.00000
     39      29.4057      0.00000
     40      29.9363      0.00000

 k-point    53 :       0.3636    0.3636    0.3636
  band No.  band energies     occupation 
      1       0.8334      2.00000
      2       1.6256      2.00000
      3       1.6256      2.00000
      4       1.6256      2.00000
      5       3.5146      2.00000
      6       3.5146      2.00000
      7       3.5146      2.00000
      8       4.0745      2.00000
      9       4.0745      2.00000
     10       4.1302      2.00000
     11       4.2208      2.00000
     12       4.2208      2.00000
     13       4.2208      2.00000
     14       4.2806      2.00000
     15       4.2806      2.00000
     16       4.2806      2.00000
     17       5.8492     -0.00204
     18       5.8492     -0.00204
     19       6.1707     -0.00000
     20       6.1707     -0.00000
     21       6.1707     -0.00000
     22       7.7693     -0.00000
     23       7.7693     -0.00000
     24       7.7693     -0.00000
     25      12.9686      0.00000
     26      12.9686      0.00000
     27      12.9686      0.00000
     28      15.4582      0.00000
     29      23.9105      0.00000
     30      23.9105      0.00000
     31      23.9105      0.00000
     32      26.5327      0.00000
     33      26.5327      0.00000
     34      26.5327      0.00000
     35      26.7270      0.00000
     36      27.6475      0.00000
     37      27.6475      0.00000
     38      27.6475      0.00000
     39      29.9946      0.00000
     40      29.9946      0.00000

 k-point    54 :       0.4545    0.3636    0.3636
  band No.  band energies     occupation 
      1       1.0803      2.00000
      2       1.3443      2.00000
      3       1.5712      2.00000
      4       1.5712      2.00000
      5       3.6190      2.00000
      6       3.6190      2.00000
      7       3.7838      2.00000
      8       3.9758      2.00000
      9       4.0712      2.00000
     10       4.1417      2.00000
     11       4.1918      2.00000
     12       4.1918      2.00000
     13       4.3593      2.00000
     14       4.3718      2.00000
     15       4.4395      2.00000
     16       4.4395      2.00000
     17       6.0336     -0.00001
     18       6.0706     -0.00000
     19       6.1251     -0.00000
     20       6.1251     -0.00000
     21       6.1441     -0.00000
     22       6.7619     -0.00000
     23       7.7800     -0.00000
     24       7.7800     -0.00000
     25      12.5115      0.00000
     26      12.5115      0.00000
     27      13.6052      0.00000
     28      14.4410      0.00000
     29      24.2981      0.00000
     30      24.2981      0.00000
     31      25.4330      0.00000
     32      26.2744      0.00000
     33      26.3808      0.00000
     34      26.3808      0.00000
     35      27.4936      0.00000
     36      28.6541      0.00000
     37      28.6551      0.00000
     38      28.7716      0.00000
     39      28.7716      0.00000
     40      30.2263      0.00000

 k-point    55 :       0.4545    0.4545    0.3636
  band No.  band energies     occupation 
      1       1.1980      2.00000
      2       1.3600      2.00000
      3       1.3600      2.00000
      4       1.4344      2.00000
      5       3.7686      2.00000
      6       3.8255      2.00000
      7       3.8255      2.00000
      8       3.9545      2.00000
      9       4.0192      2.00000
     10       4.0688      2.00000
     11       4.0688      2.00000
     12       4.0852      2.00000
     13       4.7033      2.00006
     14       4.7033      2.00006
     15       4.7158      2.00008
     16       4.7416      2.00018
     17       5.9858     -0.00005
     18       6.0945     -0.00000
     19       6.0945     -0.00000
     20       6.0998     -0.00000
     21       6.3595     -0.00000
     22       6.9334     -0.00000
     23       6.9334     -0.00000
     24       7.3040     -0.00000
     25      12.4876      0.00000
     26      12.8768      0.00000
     27      12.8768      0.00000
     28      13.5370      0.00000
     29      24.9397      0.00000
     30      25.3796      0.00000
     31      25.3796      0.00000
     32      25.9916      0.00000
     33      27.8067      0.00000
     34      27.8067      0.00000
     35      28.0650      0.00000
     36      28.3600      0.00000
     37      28.7829      0.00000
     38      29.2288      0.00000
     39      29.2288      0.00000
     40      30.1700      0.00000

 k-point    56 :       0.4545    0.4545    0.4545
  band No.  band energies     occupation 
      1       1.2100      2.00000
      2       1.2879      2.00000
      3       1.2879      2.00000
      4       1.2879      2.00000
      5       3.9033      2.00000
      6       3.9033      2.00000
      7       3.9033      2.00000
      8       3.9654      2.00000
      9       3.9654      2.00000
     10       3.9881      2.00000
     11       3.9881      2.00000
     12       3.9881      2.00000
     13       5.1809      1.98672
     14       5.1809      1.98672
     15       5.1809      1.98672
     16       5.3193      1.20311
     17       6.1131     -0.00000
     18       6.1131     -0.00000
     19       6.1522     -0.00000
     20       6.1522     -0.00000
     21       6.1522     -0.00000
     22       6.5778     -0.00000
     23       6.5778     -0.00000
     24       6.5778     -0.00000
     25      12.4632      0.00000
     26      12.4632      0.00000
     27      12.4632      0.00000
     28      12.8321      0.00000
     29      25.9141      0.00000
     30      25.9141      0.00000
     31      25.9141      0.00000
     32      26.2187      0.00000
     33      29.1002      0.00000
     34      29.1002      0.00000
     35      29.1002      0.00000
     36      29.1703      0.00000
     37      29.1703      0.00000
     38      29.1703      0.00000
     39      29.8510      0.00000
     40      29.8510      0.00000


--------------------------------------------------------------------------------------------------------


 soft charge-density along one line, spin component           1
         0         1         2         3         4         5         6         7         8         9
x    15.4771    0.0000   -0.0000    0.0000   -0.0248   -0.0000   -0.0000    0.0000   -0.2154   -0.0000
x    -0.0000    0.0000    0.0426    0.0000    0.0000    0.0000    0.0000    0.0000
y    15.4771    0.0000   -0.0000    0.0000   -0.0248   -0.0000   -0.0000    0.0000   -0.2154   -0.0000
y    -0.0000    0.0000    0.0426    0.0000    0.0000    0.0000    0.0000    0.0000
z    15.4771    0.0000   -0.0000    0.0000   -0.0248   -0.0000   -0.0000    0.0000   -0.2154   -0.0000
z    -0.0000    0.0000    0.0426    0.0000    0.0000    0.0000    0.0000    0.0000
 total charge-density along one line
x    32.0000    0.0000   -0.0000    0.0000    9.8812   -0.0000   -0.0000    0.0000    1.3810    0.0000
x    -0.0000   -0.0000   -0.0139    0.0000   -0.0000   -0.0000    0.0171   -0.0000    0.0000   -0.0000
x    -0.0045    0.0000    0.0000   -0.0000    0.0013    0.0000   -0.0000    0.0000   -0.0003   -0.0000
x     0.0000    0.0000    0.0001    0.0000
y    32.0000    0.0000   -0.0000   -0.0000    9.8812    0.0000   -0.0000   -0.0000    1.3810    0.0000
y     0.0000   -0.0000   -0.0139   -0.0000    0.0000   -0.0000    0.0171    0.0000   -0.0000   -0.0000
y    -0.0045    0.0000    0.0000   -0.0000    0.0013   -0.0000    0.0000    0.0000   -0.0003    0.0000
y     0.0000    0.0000    0.0001    0.0000
z    32.0000    0.0000    0.0000   -0.0000    9.8812    0.0000   -0.0000   -0.0000    1.3810   -0.0000
z     0.0000   -0.0000   -0.0139   -0.0000    0.0000   -0.0000    0.0171    0.0000    0.0000   -0.0000
z    -0.0045   -0.0000   -0.0000   -0.0000    0.0013    0.0000   -0.0000    0.0000   -0.0003    0.0000
z    -0.0000    0.0000    0.0001    0.0000
 
 pseudopotential strength for first ion, spin component:           1
 -5.323   0.000   0.000  -0.000  -0.000  -5.863   0.000   0.000
  0.000  -5.323  -0.000  -0.000   0.000   0.000  -5.863  -0.000
  0.000  -0.000  -5.310  -0.000   0.000   0.000  -0.000  -5.849
 -0.000  -0.000  -0.000  -5.323   0.000  -0.000  -0.000  -0.000
 -0.000   0.000   0.000   0.000  -5.310  -0.000   0.000   0.000
 -5.863   0.000   0.000  -0.000  -0.000  -6.360   0.000   0.000
  0.000  -5.863  -0.000  -0.000   0.000   0.000  -6.360  -0.000
  0.000  -0.000  -5.849  -0.000   0.000   0.000  -0.000  -6.347
 -0.000  -0.000  -0.000  -5.863   0.000  -0.000  -0.000  -0.000
 -0.000   0.000   0.000   0.000  -5.849  -0.000   0.000   0.000
  0.000   0.000   0.000   0.000  -0.000   0.000   0.000   0.000
  0.000   0.000   0.000   0.000  -0.000   0.000   0.000   0.000
  0.000  -0.000   0.000  -0.000   0.000   0.000  -0.000   0.000
 -0.000  -0.000  -0.000   0.000   0.000  -0.000  -0.000  -0.000
 -0.000  -0.000  -0.000  -0.000   0.000  -0.000  -0.000  -0.000
  0.000  -0.000   0.000  -0.000   0.000   0.000  -0.000   0.000
 -0.000  -0.000  -0.000   0.000   0.000  -0.000  -0.000  -0.000
 -0.000  -0.000  -0.000  -0.000   0.000  -0.000  -0.000  -0.000
 total augmentation occupancy for first ion, spin component:           1
  1.331   0.000   0.000  -0.000  -0.000  -0.456   0.000   0.000   0.000   0.000  -0.000  -0.000   0.000   0.000   0.000   0.000
  0.000   1.331  -0.000   0.000   0.000  -0.000  -0.456   0.000  -0.000   0.000  -0.000  -0.000  -0.000   0.000   0.000   0.000
 -0.000  -0.000   2.247  -0.000   0.000   0.000   0.000  -0.995   0.000   0.000   0.000  -0.000   0.000   0.000   0.000  -0.000
 -0.000   0.000  -0.000   1.331  -0.000  -0.000  -0.000   0.000  -0.456  -0.000  -0.000   0.000   0.000   0.000   0.000  -0.000
 -0.000   0.000   0.000  -0.000   2.247  -0.000  -0.000   0.000   0.000  -0.995   0.000   0.000  -0.000  -0.000  -0.000   0.000
 -0.456  -0.000   0.000  -0.000  -0.000   0.904   0.000  -0.000   0.000  -0.000   0.000  -0.000  -0.000  -0.000   0.000   0.000
  0.000  -0.456   0.000  -0.000  -0.000   0.000   0.904  -0.000   0.000   0.000   0.000  -0.000  -0.000   0.000   0.000  -0.000
  0.000  -0.000  -0.995   0.000   0.000  -0.000  -0.000   1.110  -0.000   0.000  -0.000   0.000   0.000   0.000  -0.000   0.000
  0.000  -0.000   0.000  -0.456   0.000   0.000  -0.000   0.000   0.904  -0.000  -0.000  -0.000  -0.000   0.000  -0.000  -0.000
  0.000   0.000   0.000  -0.000  -0.995  -0.000   0.000  -0.000  -0.000   1.110   0.000   0.000  -0.000   0.000   0.000   0.000
 -0.000  -0.000   0.000  -0.000   0.000   0.000   0.000  -0.000   0.000  -0.000   2.255  -0.240   0.000   0.000  -0.000  -0.000
 -0.000  -0.000  -0.000   0.000   0.000  -0.000  -0.000   0.000  -0.000   0.000  -0.240   0.029   0.000   0.000  -0.000  -0.000
  0.000  -0.000  -0.000  -0.000   0.000   0.000   0.000  -0.000  -0.000  -0.000  -0.000   0.000   0.271  -0.000  -0.000  -0.023
  0.000   0.000  -0.000  -0.000   0.000   0.000   0.000   0.000   0.000   0.000   0.000  -0.000  -0.000   0.271   0.000   0.000
  0.000   0.000  -0.000  -0.000   0.000   0.000   0.000   0.000   0.000   0.000   0.000  -0.000  -0.000   0.000   0.271  -0.000
 -0.000   0.000  -0.000  -0.000  -0.000   0.000   0.000   0.000  -0.000   0.000   0.000  -0.000  -0.023   0.000   0.000   0.002
 -0.000  -0.000  -0.000   0.000  -0.000  -0.000  -0.000  -0.000   0.000   0.000  -0.000   0.000  -0.000  -0.023  -0.000   0.000
 -0.000   0.000  -0.000  -0.000  -0.000   0.000   0.000   0.000  -0.000  -0.000  -0.000  -0.000   0.000  -0.000  -0.023   0.000


------------------------ aborting loop because EDIFF is reached ----------------------------------------


    CHARGE:  cpu time    0.0485: real time    0.0485
    FORLOC:  cpu time    0.0006: real time    0.0006
    FORNL :  cpu time    0.2697: real time    0.2697
    STRESS:  cpu time    0.3121: real time    0.3121
    FORCOR:  cpu time    0.0075: real time    0.0075
    FORHAR:  cpu time    0.0017: real time    0.0017
    MIXING:  cpu time    0.0005: real time    0.0005

  FORCE on cell =-STRESS in cart. coord.  units (eV):
  Direction    XX          YY          ZZ          XY          YZ          ZX
  --------------------------------------------------------------------------------------
  Alpha Z   235.17313   235.17313   235.17313
  Ewald    -780.43899  -780.43899  -780.43899    -0.00000    -0.00000     0.00000
  Hartree   129.08561   129.08561   129.08561    -0.00000    -0.00000    -0.00000
  E(xc)    -154.31534  -154.31534  -154.31534     0.00000     0.00000    -0.00000
  Local     230.02968   230.02968   230.02968     0.00000     0.00000    -0.00000
  n-local  -113.87726  -111.76972  -106.39552     3.04205     0.17804     0.52533
  augment   152.71946   152.71946   152.71946     0.00000    -0.00000     0.00000
  Kinetic   304.76467   286.06675   279.04199     1.87261     6.58527     5.19342
  Fock        0.00000     0.00000     0.00000     0.00000     0.00000     0.00000
  -------------------------------------------------------------------------------------
  Total      -8.46947    -8.46947    -8.46947     0.00000     0.00000    -0.00000
  in kB    -288.58259  -288.58259  -288.58259     0.00000     0.00000    -0.00000
  external pressure =     -288.58 kB  Pullay stress =        0.00 kB


 VOLUME and BASIS-vectors are now :
 -----------------------------------------------------------------------------
  energy-cutoff  :      300.00
  volume of cell :       47.02
      direct lattice vectors                 reciprocal lattice vectors
     3.609377469  0.000000000  0.000000000     0.277056088  0.000000000  0.000000000
     0.000000000  3.609377469  0.000000000     0.000000000  0.277056088  0.000000000
     0.000000000  0.000000000  3.609377469     0.000000000  0.000000000  0.277056088

  length of vectors
     3.609377469  3.609377469  3.609377469     0.277056088  0.277056088  0.277056088


 FORCES acting on ions
    electron-ion (+dipol)            ewald-force                    non-local-force                 convergence-correction
 -----------------------------------------------------------------------------------------------
   -.293E-13 0.459E-14 0.114E-13   -.594E-14 -.528E-14 -.932E-14   0.109E-23 -.166E-25 0.936E-24   -.292E-13 0.228E-13 0.663E-14
   0.494E-13 0.802E-13 0.110E-13   0.242E-14 0.280E-14 -.928E-14   -.150E-23 0.608E-24 -.315E-24   -.240E-13 0.162E-13 0.122E-13
   0.456E-13 0.476E-14 0.863E-13   0.295E-14 -.247E-14 0.858E-14   0.436E-24 -.195E-23 -.341E-23   -.138E-13 0.542E-14 -.731E-14
   -.270E-13 0.806E-13 0.852E-13   -.644E-15 0.562E-14 0.862E-14   0.334E-24 -.140E-23 -.181E-23   -.198E-13 0.405E-15 -.164E-13
 -----------------------------------------------------------------------------------------------
   0.386E-13 0.170E-12 0.194E-12   -.122E-14 0.667E-15 -.139E-14   0.358E-24 -.276E-23 -.461E-23   -.868E-13 0.449E-13 -.490E-14
 
 
 POSITION                                       TOTAL-FORCE (eV/Angst)
 -----------------------------------------------------------------------------------
      0.00000      0.00000      0.00000        -0.000000     -0.000000     -0.000000
      1.80469      1.80469      0.00000         0.000000     -0.000000      0.000000
      1.80469      0.00000      1.80469        -0.000000      0.000000     -0.000000
      0.00000      1.80469      1.80469         0.000000      0.000000      0.000000
 -----------------------------------------------------------------------------------
    total drift:                               -0.000000      0.000000      0.000000


--------------------------------------------------------------------------------------------------------



  FREE ENERGIE OF THE ION-ELECTRON SYSTEM (eV)
  ---------------------------------------------------
  free  energy   TOTEN  =       -31.70927248 eV

  energy  without entropy=      -31.71456885  energy(sigma->0) =      -31.71103794
 


--------------------------------------------------------------------------------------------------------


    POTLOK:  cpu time    0.0111: real time    0.0111


--------------------------------------------------------------------------------------------------------


 writing wavefunctions
     LOOP+:  cpu time   13.8665: real time   13.8685
    4ORBIT:  cpu time    0.0000: real time    0.0000

 total amount of memory used by VASP MPI-rank0    59377. kBytes
=======================================================================

   base      :      30000. kBytes
   nonl-proj :       4608. kBytes
   grid      :       1806. kBytes
   one-center:         62. kBytes
   wavefun   :      22901. kBytes
 
  
  
 General timing and accounting informations for this job:
 ========================================================
  
                  Total CPU time used (sec):       14.107
                            User time (sec):       14.071
                          System time (sec):        0.036
                         Elapsed time (sec):       14.098
  
                   Maximum memory used (kb):       66424.
                   Average memory used (kb):          N/A
  
                          Minor page faults:        10216
                          Major page faults:            0
                 Voluntary context switches:           25
