 vasp.6.2.0 18Jan21 (build Mar 17 2021 09:06:54) complex                        
  
 POSCAR found type information on POSCAR Fe
 POSCAR found :  1 types and       4 ions
 LDA part: xc-table for Pade appr. of Perdew
 POSCAR, INCAR and KPOINTS ok, starting setup
 FFT: planning ...
 WAVECAR not read
 WARNING: chargedensity file is incomplete
 entering main loop
       N       E                     dE             d eps       ncg     rms          rms(c)
DAV:   1     0.162155635878E+03    0.16216E+03   -0.85148E+03  4776   0.667E+02
DAV:   2    -0.260251126037E+02   -0.18818E+03   -0.16599E+03  4576   0.182E+02
DAV:   3    -0.381801991108E+02   -0.12155E+02   -0.10918E+02  5184   0.566E+01
DAV:   4    -0.383361751964E+02   -0.15598E+00   -0.15564E+00  4888   0.760E+00
DAV:   5    -0.383376310601E+02   -0.14559E-02   -0.14558E-02  5048   0.555E-01    0.215E+01
DAV:   6    -0.325331197543E+02    0.58045E+01   -0.17351E+01  5072   0.577E+01    0.700E+00
DAV:   7    -0.317749721582E+02    0.75815E+00   -0.21457E+00  5392   0.186E+01    0.135E+00
DAV:   8    -0.317291338346E+02    0.45838E-01   -0.17128E-02  6000   0.115E+00    0.641E-01
DAV:   9    -0.317091905212E+02    0.19943E-01   -0.30121E-03  6096   0.387E-01    0.110E-01
DAV:  10    -0.317092645795E+02   -0.74058E-04   -0.99200E-04  4992   0.229E-01    0.570E-02
DAV:  11    -0.317092810223E+02   -0.16443E-04   -0.30163E-05  5096   0.689E-02    0.257E-02
DAV:  12    -0.317092706135E+02    0.10409E-04   -0.15944E-05  5296   0.436E-02    0.317E-03
DAV:  13    -0.317092722479E+02   -0.16344E-05   -0.20662E-07  2936   0.247E-03    0.731E-04
DAV:  14    -0.317092724832E+02   -0.23532E-06   -0.37265E-08  2624   0.165E-03
   1 F= -.31709272E+02 E0= -.31711038E+02  d E =0.529637E-02
 writing wavefunctions
