unknown system                          
   1.00000000000000     
     2.283400    0.000000    0.000000
    -1.141700    1.977482    0.000000
     0.000000    0.000000    3.937640
   Fe
     2
Direct
  0.000000  0.000000  0.000000
  0.333333  0.666667  0.500000
 
   20   20   32
 0.14906133111E+03 0.14154762719E+03 0.12126556019E+03 0.93814972341E+02 0.65555502729E+02
 0.41438119887E+02 0.24147018133E+02 0.14138902091E+02 0.99580685758E+01 0.88454548690E+01
 0.85446410280E+01 0.88455163677E+01 0.99581246696E+01 0.14138903520E+02 0.24146991308E+02
 0.41438125088E+02 0.65555552740E+02 0.93815020240E+02 0.12126556652E+03 0.14154760982E+03
 0.14155152434E+03 0.14154761294E+03 0.12768500552E+03 0.10397759979E+03 0.76470275497E+02
 0.50796117783E+02 0.30699800316E+02 0.17693183337E+02 0.11228370589E+02 0.91100897970E+01
 0.85312931134E+01 0.85311007027E+01 0.91099026409E+01 0.11228497223E+02 0.17692886139E+02
 0.30698425506E+02 0.50795161650E+02 0.76472916974E+02 0.10398504396E+03 0.12769371972E+03
 0.12127135088E+03 0.12765771180E+03 0.12126556556E+03 0.10397761512E+03 0.80495239202E+02
 0.56254920905E+02 0.35606786038E+02 0.20972281486E+02 0.12731209439E+02 0.94519324624E+01
 0.85377758386E+01 0.82513460259E+01 0.85373505975E+01 0.94519644172E+01 0.12731579224E+02
 0.20971459759E+02 0.35604270420E+02 0.56253204403E+02 0.80497713876E+02 0.10398414330E+03
 0.93812367314E+02 0.10390403817E+03 0.10390492415E+03 0.93815001759E+02 0.76470267080E+02
 0.56254906115E+02 0.37427172119E+02 0.22941015447E+02 0.13959584222E+02 0.98434284489E+01
 0.85561324527E+01 0.80429781278E+01 0.80427704587E+01 0.85559924961E+01 0.98440315396E+01
 0.13960540324E+02 0.22940896107E+02 0.37424937176E+02 0.56251042147E+02 0.76466349524E+02
 0.65547235463E+02 0.76367927860E+02 0.80354798897E+02 0.76374449555E+02 0.65555502353E+02
 0.50796088734E+02 0.35606797802E+02 0.22941028618E+02 0.14433607878E+02 0.10112644452E+02
 0.85758647139E+01 0.79156654152E+01 0.76810245403E+01 0.79156032745E+01 0.85758886687E+01
 0.10113422639E+02 0.14435751108E+02 0.22943549033E+02 0.35606803334E+02 0.50791247127E+02
 0.41437161173E+02 0.50714513946E+02 0.56109516049E+02 0.56111670341E+02 0.50718410089E+02
 0.41438105342E+02 0.30699805221E+02 0.20972308061E+02 0.13959569062E+02 0.10112633355E+02
 0.85860057322E+01 0.78585306675E+01 0.74717540710E+01 0.74718711430E+01 0.78583100871E+01
 0.85850629314E+01 0.10112458724E+02 0.13962229335E+02 0.20977238856E+02 0.30703303944E+02
 0.24152775672E+02 0.30674312779E+02 0.35529477398E+02 0.37324321190E+02 0.35526985873E+02
 0.30669477575E+02 0.24147006197E+02 0.17693198302E+02 0.12731199918E+02 0.98434055175E+01
 0.85758832599E+01 0.78585397727E+01 0.74047370067E+01 0.72538308473E+01 0.74051081407E+01
 0.78577679256E+01 0.85733557548E+01 0.98409568604E+01 0.12731579224E+02 0.17697222415E+02
 0.14138779826E+02 0.17714109346E+02 0.20984650679E+02 0.22935461358E+02 0.22932838432E+02
 0.20978925213E+02 0.17709793094E+02 0.14138893963E+02 0.11228380082E+02 0.94519182636E+01
 0.85561463491E+01 0.79156843538E+01 0.74717321202E+01 0.72538232554E+01 0.72543762943E+01
 0.74727113640E+01 0.79154795807E+01 0.85534632640E+01 0.94472729286E+01 0.11224459006E+02
 0.99519439774E+01 0.11266507714E+02 0.12799595138E+02 0.14039792178E+02 0.14514803396E+02
 0.14038115839E+02 0.12799590155E+02 0.11270509396E+02 0.99580850006E+01 0.91100951114E+01
 0.85377683152E+01 0.80429901821E+01 0.76810065939E+01 0.74718558140E+01 0.74051333350E+01
 0.74727179858E+01 0.76831611258E+01 0.80454233846E+01 0.85377469258E+01 0.91059881177E+01
 0.88453028118E+01 0.91541462577E+01 0.95383271660E+01 0.99628458139E+01 0.10249774996E+02
 0.10250721635E+02 0.99658877716E+01 0.95429984849E+01 0.91580457413E+01 0.88454721512E+01
 0.85312743073E+01 0.82513421968E+01 0.80427766262E+01 0.79155944917E+01 0.78583315753E+01
 0.78577803086E+01 0.79154518593E+01 0.80454174978E+01 0.82563747643E+01 0.85352287818E+01
 0.85504253918E+01 0.85838170283E+01 0.86324759050E+01 0.86875495934E+01 0.87343728413E+01
 0.87556655989E+01 0.87368577629E+01 0.86900565492E+01 0.86321242456E+01 0.85797465821E+01
 0.85446335010E+01 0.85310867752E+01 0.85373719869E+01 0.85559966315E+01 0.85758832599E+01
 0.85850678412E+01 0.85733318000E+01 0.85534535030E+01 0.85377758386E+01 0.85352336605E+01
 0.88452744523E+01 0.85838137908E+01 0.83520595651E+01 0.81840372648E+01 0.80879925093E+01
 0.80493120863E+01 0.80498392637E+01 0.80880969256E+01 0.81814055012E+01 0.83471004339E+01
 0.85799530226E+01 0.88455052904E+01 0.91099146946E+01 0.94519749865E+01 0.98440076875E+01
 0.10113416853E+02 0.10112464035E+02 0.98409559397E+01 0.94472976966E+01 0.91059948571E+01
 0.99519203220E+01 0.91541434259E+01 0.86325018760E+01 0.81840382329E+01 0.78600332775E+01
 0.76766029991E+01 0.76188893227E+01 0.76757866970E+01 0.78579109958E+01 0.81815859179E+01
 0.86324881356E+01 0.91582592972E+01 0.99581174390E+01 0.11228503776E+02 0.12731563808E+02
 0.13960532977E+02 0.14435776902E+02 0.13962237148E+02 0.12731573329E+02 0.11224456066E+02
 0.14138786793E+02 0.11266514151E+02 0.95383478876E+01 0.86875477693E+01 0.80879705437E+01
 0.76766045279E+01 0.74763940275E+01 0.74758709501E+01 0.76756713993E+01 0.80881620446E+01
 0.86901458231E+01 0.95429002267E+01 0.11270394098E+02 0.14138902359E+02 0.17692891847E+02
 0.20971459444E+02 0.22940913320E+02 0.22943553075E+02 0.20977211966E+02 0.17697213157E+02
 0.24152802496E+02 0.17714118801E+02 0.12799586997E+02 0.99628366070E+01 0.87343565336E+01
 0.80493185304E+01 0.76189061775E+01 0.74758673802E+01 0.76185254327E+01 0.80500701967E+01
 0.87368577629E+01 0.99652628660E+01 0.12799193826E+02 0.17710080749E+02 0.24147006197E+02
 0.30698429957E+02 0.35604264888E+02 0.37424930543E+02 0.35606786038E+02 0.30703303489E+02
 0.41437176916E+02 0.30674309413E+02 0.20984625407E+02 0.14039784058E+02 0.10249784130E+02
 0.87556764399E+01 0.80498501521E+01 0.76757768542E+01 0.76756600277E+01 0.80500746409E+01
 0.87566345941E+01 0.10249992219E+02 0.14037172868E+02 0.20979744491E+02 0.30670842299E+02
 0.41438126285E+02 0.50795145763E+02 0.56253196160E+02 0.56251048694E+02 0.50791260289E+02
 0.65547227134E+02 0.50714495746E+02 0.35529464711E+02 0.22935468534E+02 0.14514825582E+02
 0.10250727101E+02 0.87368477652E+01 0.80880858413E+01 0.78579059359E+01 0.80881729260E+01
 0.87368640729E+01 0.10249988552E+02 0.14512708493E+02 0.22932962126E+02 0.35529477105E+02
 0.50719374004E+02 0.65555544036E+02 0.76472920006E+02 0.80497730434E+02 0.76466360974E+02
 0.93812350586E+02 0.76367914639E+02 0.56109526430E+02 0.37324342225E+02 0.22932846779E+02
 0.14038105275E+02 0.99658697116E+01 0.86900542264E+01 0.81814164781E+01 0.81815959266E+01
 0.86901453244E+01 0.99652540128E+01 0.14037170423E+02 0.22932963297E+02 0.37326521191E+02
 0.56113328181E+02 0.76371827800E+02 0.93815032930E+02 0.10398505206E+03 0.10398413607E+03
 0.12127134455E+03 0.10390404890E+03 0.80354814942E+02 0.56111683430E+02 0.35526973479E+02
 0.20978903681E+02 0.12799586997E+02 0.95430113450E+01 0.86321379860E+01 0.83471003933E+01
 0.86324759050E+01 0.95428923652E+01 0.12799198809E+02 0.20979748230E+02 0.35529477398E+02
 0.56113330889E+02 0.80352265983E+02 0.10389749247E+03 0.12126556556E+03 0.12769369880E+03
 0.14155152720E+03 0.12765773859E+03 0.10390492765E+03 0.76374436402E+02 0.50718395754E+02
 0.30669466433E+02 0.17709807444E+02 0.11270529457E+02 0.91580434338E+01 0.85797333663E+01
 0.85799430443E+01 0.91582598214E+01 0.11270407722E+02 0.17710085644E+02 0.30670834525E+02
 0.50719377869E+02 0.76371827868E+02 0.10389748524E+03 0.12764899661E+03 0.14154759843E+03
 0.14034309057E+03 0.13327730828E+03 0.11419034205E+03 0.88329579245E+02 0.61692384268E+02
 0.38990146542E+02 0.22794803839E+02 0.13522706890E+02 0.97231979705E+01 0.87016339789E+01
 0.84076800759E+01 0.87016939076E+01 0.97232531850E+01 0.13522709192E+02 0.22794777598E+02
 0.38990149485E+02 0.61692429785E+02 0.88329623806E+02 0.11419034824E+03 0.13327729227E+03
 0.13328092685E+03 0.13327729431E+03 0.12023091648E+03 0.97899356013E+02 0.71967906536E+02
 0.47775366105E+02 0.28900188536E+02 0.16781593971E+02 0.10850736550E+02 0.89422140541E+01
 0.83832091640E+01 0.83830211034E+01 0.89420311858E+01 0.10850877142E+02 0.16781374172E+02
 0.28898966326E+02 0.47774498422E+02 0.71970347934E+02 0.97906252106E+02 0.12023900304E+03
 0.11419572134E+03 0.12021068331E+03 0.11419034733E+03 0.97899371031E+02 0.75757530167E+02
 0.52905387023E+02 0.33485490851E+02 0.19807615917E+02 0.12201437420E+02 0.92348767071E+01
 0.83823001307E+01 0.81040801216E+01 0.83818784935E+01 0.92348910805E+01 0.12201804502E+02
 0.19806897657E+02 0.33483179887E+02 0.52903782761E+02 0.75759804489E+02 0.97905422126E+02
 0.88327171165E+02 0.97844688434E+02 0.97845505627E+02 0.88329608059E+02 0.71967898272E+02
 0.52905372553E+02 0.35188634836E+02 0.21630404978E+02 0.13314192508E+02 0.95717415218E+01
 0.83962165961E+01 0.78986849691E+01 0.78984822728E+01 0.83960632529E+01 0.95722761321E+01
 0.13315057959E+02 0.21630272461E+02 0.35186538273E+02 0.52901770844E+02 0.71964260714E+02
 0.61684728829E+02 0.71895696842E+02 0.75658460594E+02 0.71901742549E+02 0.61692383890E+02
 0.47775337682E+02 0.33485502369E+02 0.21630417843E+02 0.13745144049E+02 0.98057117375E+01
 0.84125175376E+01 0.77740976659E+01 0.75484964953E+01 0.77740539443E+01 0.84125408966E+01
 0.98064034059E+01 0.13747085430E+02 0.21632725102E+02 0.33485507751E+02 0.47770863843E+02
 0.38989276382E+02 0.47729526112E+02 0.52818002292E+02 0.52820006667E+02 0.47733143698E+02
 0.38990132307E+02 0.28900193327E+02 0.19807641883E+02 0.13314177699E+02 0.98057009217E+01
 0.84203069667E+01 0.77183954191E+01 0.73472746054E+01 0.73474058491E+01 0.77182343269E+01
 0.84194542538E+01 0.98055303036E+01 0.13316637498E+02 0.19812235317E+02 0.28903474007E+02
 0.22800150691E+02 0.28909915374E+02 0.33471984472E+02 0.35160636546E+02 0.33469693726E+02
 0.28905446864E+02 0.22794792126E+02 0.16781608613E+02 0.12201428137E+02 0.95717191564E+01
 0.84125356257E+01 0.77184042806E+01 0.72830194023E+01 0.71388940202E+01 0.72833882624E+01
 0.77177186919E+01 0.84102130332E+01 0.95694660238E+01 0.12201804502E+02 0.16785366218E+02
 0.13522571488E+02 0.16834442668E+02 0.19881146354E+02 0.21703905070E+02 0.21701479458E+02
 0.19875856433E+02 0.16830466967E+02 0.13522698971E+02 0.10850745863E+02 0.92348628271E+01
 0.83962301361E+01 0.77741161148E+01 0.73472532123E+01 0.71388866292E+01 0.71393891915E+01
 0.73481412474E+01 0.77739162403E+01 0.83937483159E+01 0.92305642264E+01 0.10847104859E+02
 0.97174866802E+01 0.10917791124E+02 0.12325788489E+02 0.13470450571E+02 0.13909943830E+02
 0.13468883254E+02 0.12325783603E+02 0.10921527766E+02 0.97232140415E+01 0.89422191977E+01
 0.83822927632E+01 0.78986967490E+01 0.75484790072E+01 0.73473909163E+01 0.72834128143E+01
 0.73481477077E+01 0.75504309467E+01 0.79009349138E+01 0.83822719055E+01 0.89383966070E+01
 0.87014854515E+01 0.90131082322E+01 0.93732697235E+01 0.97633383568E+01 0.10026404410E+02
 0.10027262796E+02 0.97661210684E+01 0.93775802946E+01 0.90167290253E+01 0.87016508407E+01
 0.83831908013E+01 0.81040764401E+01 0.78984882928E+01 0.77740453627E+01 0.77182552695E+01
 0.77177307730E+01 0.77738892098E+01 0.79009291540E+01 0.81087531359E+01 0.83868641384E+01
 0.84130531687E+01 0.84612998939E+01 0.85268999124E+01 0.85977710278E+01 0.86546604617E+01
 0.86782897097E+01 0.86569447922E+01 0.86000673818E+01 0.85265505457E+01 0.84575120390E+01
 0.84076727466E+01 0.83830075298E+01 0.83818993512E+01 0.83960672473E+01 0.84125356257E+01
 0.84194590491E+01 0.84101896742E+01 0.83937387704E+01 0.83823001307E+01 0.83868689275E+01
 0.87014577256E+01 0.84612967028E+01 0.82538115404E+01 0.81087594121E+01 0.80302620827E+01
 0.80009292953E+01 0.80014301258E+01 0.80303799703E+01 0.81063251860E+01 0.82492039180E+01
 0.84577134770E+01 0.87016830436E+01 0.89420429444E+01 0.92349013763E+01 0.95722528770E+01
 0.98063977707E+01 0.98055354842E+01 0.95694651341E+01 0.92305884023E+01 0.89384032220E+01
 0.97174635605E+01 0.90131054265E+01 0.85269253365E+01 0.81087603777E+01 0.78111851517E+01
 0.76452301594E+01 0.75935789461E+01 0.76445151142E+01 0.78092609378E+01 0.81065014393E+01
 0.85269118629E+01 0.90169374815E+01 0.97232461363E+01 0.10850883567E+02 0.12201789454E+02
 0.13315050801E+02 0.13747110595E+02 0.13316645149E+02 0.12201798738E+02 0.10847101972E+02
 0.13522578315E+02 0.10917797428E+02 0.93732899997E+01 0.85977692722E+01 0.80302405585E+01
 0.76452316528E+01 0.74593874537E+01 0.74589128275E+01 0.76443865398E+01 0.80304276492E+01
 0.86001707715E+01 0.93775004129E+01 0.10921399191E+02 0.13522708101E+02 0.16781379720E+02
 0.19806897355E+02 0.21630289269E+02 0.21632729045E+02 0.19812209050E+02 0.16785357124E+02
 0.22800176931E+02 0.16834451963E+02 0.12325780502E+02 0.97633293494E+01 0.86546444889E+01
 0.80009355958E+01 0.75935954729E+01 0.74589093185E+01 0.75932176289E+01 0.80016034332E+01
 0.86569447922E+01 0.97655630516E+01 0.12325390191E+02 0.16830678824E+02 0.22794792126E+02
 0.28898970664E+02 0.33483174506E+02 0.35186531756E+02 0.33485490851E+02 0.28903473554E+02
 0.38989291775E+02 0.28909912102E+02 0.19881121603E+02 0.13470442597E+02 0.10026413375E+02
 0.86783003115E+01 0.80014408026E+01 0.76445054598E+01 0.76443753919E+01 0.80016078095E+01
 0.86791696618E+01 0.10026616484E+02 0.13468028486E+02 0.19876573497E+02 0.28906659099E+02
 0.38990150642E+02 0.47774482915E+02 0.52903774679E+02 0.52901777233E+02 0.47770876759E+02
 0.61684720675E+02 0.47729508274E+02 0.33471972062E+02 0.21703912072E+02 0.13909965578E+02
 0.10027268142E+02 0.86569349891E+01 0.80303691329E+01 0.78092559688E+01 0.80304383360E+01
 0.86569509618E+01 0.10026612866E+02 0.13908046742E+02 0.21701617162E+02 0.33471984227E+02
 0.47734016800E+02 0.61692421254E+02 0.71970350913E+02 0.75759820667E+02 0.71964271957E+02
 0.88327154799E+02 0.71895683864E+02 0.52818012476E+02 0.35160657142E+02 0.21701487626E+02
 0.13468872919E+02 0.97661033560E+01 0.86000651437E+01 0.81063359317E+01 0.81065112195E+01
 0.86001702891E+01 0.97655543466E+01 0.13468026125E+02 0.21701618328E+02 0.35162703525E+02
 0.52821558010E+02 0.71899318103E+02 0.88329636254E+02 0.97906260035E+02 0.97905415038E+02
 0.11419571514E+03 0.97844698937E+02 0.75658476312E+02 0.52820019497E+02 0.33469681562E+02
 0.19875835369E+02 0.12325780502E+02 0.93775928921E+01 0.85265640193E+01 0.82492038202E+01
 0.85268999124E+01 0.93774927342E+01 0.12325395077E+02 0.19876577183E+02 0.33471984472E+02
 0.52821560656E+02 0.75656132731E+02 0.97838621519E+02 0.11419034733E+03 0.12023898252E+03
 0.13328092964E+03 0.12021070957E+03 0.97845509038E+02 0.71901729676E+02 0.47733129640E+02
 0.28905435968E+02 0.16830481036E+02 0.10921547368E+02 0.90167267925E+01 0.84574990836E+01
 0.84577037126E+01 0.90169380542E+01 0.10921412490E+02 0.16830683598E+02 0.28906651475E+02
 0.47734020580E+02 0.71899318208E+02 0.97838614427E+02 0.12020259738E+03 0.13327728110E+03
 0.11717546842E+03 0.11128591618E+03 0.95348269396E+02 0.73705194157E+02 0.51408777700E+02
 0.32519800793E+02 0.19277524820E+02 0.11962791819E+02 0.91349112192E+01 0.83102873259E+01
 0.80377929363E+01 0.83103426360E+01 0.91349634518E+01 0.11962796007E+02 0.19277500251E+02
 0.32519798397E+02 0.51408812076E+02 0.73705230302E+02 0.95348275196E+02 0.11128590360E+03
 0.11128879524E+03 0.11128590301E+03 0.10038832807E+03 0.81697700413E+02 0.59969286189E+02
 0.39760267143E+02 0.24180475578E+02 0.14442916750E+02 0.99076895425E+01 0.84994453643E+01
 0.79849859617E+01 0.79848116918E+01 0.84992760208E+01 0.99078616069E+01 0.14442888858E+02
 0.24179645351E+02 0.39759629433E+02 0.59971199300E+02 0.81703145677E+02 0.10039474994E+03
 0.95352556141E+02 0.10038729618E+03 0.95348274412E+02 0.81697714535E+02 0.63128822192E+02
 0.44004284055E+02 0.27898588065E+02 0.16794488887E+02 0.10866924976E+02 0.86842227627E+01
 0.79626195429E+01 0.77090390145E+01 0.79622137604E+01 0.86841940473E+01 0.10867279245E+02
 0.16794034583E+02 0.27896814204E+02 0.44002979859E+02 0.63130570009E+02 0.81702501670E+02
 0.73703306537E+02 0.81694058094E+02 0.81694693973E+02 0.73705221243E+02 0.59969278358E+02
 0.44004270498E+02 0.29285387644E+02 0.18226448754E+02 0.11677578838E+02 0.88896837551E+01
 0.79615727235E+01 0.75102389640E+01 0.75100518790E+01 0.79613895934E+01 0.88900428663E+01
 0.11678209134E+02 0.18226286380E+02 0.29283663245E+02 0.44001367980E+02 0.59966383897E+02
 0.51402741498E+02 0.59977751350E+02 0.63140666714E+02 0.59982535761E+02 0.51408777311E+02
 0.39760240512E+02 0.27898598898E+02 0.18226460745E+02 0.11995295600E+02 0.90362496884E+01
 0.79687523279E+01 0.73908931624E+01 0.71907603372E+01 0.73908950587E+01 0.79687739895E+01
 0.90367192899E+01 0.11996712983E+02 0.18228210146E+02 0.27898603837E+02 0.39756737795E+02
 0.32519160901E+02 0.39809068672E+02 0.44070873765E+02 0.44072479203E+02 0.39811946806E+02
 0.32519787451E+02 0.24180480055E+02 0.16794513112E+02 0.11677565016E+02 0.90362396707E+01
 0.79726789212E+01 0.73376444399E+01 0.70098918579E+01 0.70100551761E+01 0.73376304776E+01
 0.79720597045E+01 0.90360817940E+01 0.11679495404E+02 0.16798207724E+02 0.24183174485E+02
 0.19281781196E+02 0.24281940696E+02 0.28052037770E+02 0.29453539210E+02 0.28050274756E+02
 0.24278440716E+02 0.19277513745E+02 0.14442930462E+02 0.10866916364E+02 0.88896629977E+01
 0.79687691172E+01 0.73376526092E+01 0.69525180298E+01 0.68266353050E+01 0.69528748272E+01
 0.73371882052E+01 0.79669843564E+01 0.88879238774E+01 0.10867279245E+02 0.14445975720E+02
 0.11962626688E+02 0.14577275038E+02 0.17025045649E+02 0.18503450989E+02 0.18501546885E+02
 0.17020905753E+02 0.14574195746E+02 0.11962784493E+02 0.99076983363E+01 0.86842097924E+01
 0.79615852541E+01 0.73909102187E+01 0.70098720522E+01 0.68266284851E+01 0.68269998475E+01
 0.70105233529E+01 0.73907257397E+01 0.79596351470E+01 0.86808277215E+01 0.99048006498E+01
 0.91303029869E+01 0.10047007607E+02 0.11131680709E+02 0.12025069064E+02 0.12370490558E+02
 0.12023793735E+02 0.11131676100E+02 0.10050035617E+02 0.91349262827E+01 0.84994500289E+01
 0.79626126235E+01 0.75102499590E+01 0.71907441518E+01 0.70100413712E+01 0.69528975498E+01
 0.70105293537E+01 0.71921704502E+01 0.75119756444E+01 0.79625932804E+01 0.84963843828E+01
 0.83101501530E+01 0.86361192340E+01 0.89500893571E+01 0.92580745296E+01 0.94614703320E+01
 0.94620993068E+01 0.92601789467E+01 0.89534486753E+01 0.86390002086E+01 0.83103029969E+01
 0.79849688643E+01 0.77090357446E+01 0.75100574759E+01 0.73908870547E+01 0.73376498688E+01
 0.73371994271E+01 0.73907006794E+01 0.75119702464E+01 0.77127671424E+01 0.79878958128E+01
 0.80420738810E+01 0.81247371756E+01 0.82271526297E+01 0.83308402841E+01 0.84099905776E+01
 0.84405033012E+01 0.84117477158E+01 0.83325849652E+01 0.82268149035E+01 0.81217015681E+01
 0.80377861709E+01 0.79847991244E+01 0.79622331034E+01 0.79613931919E+01 0.79687691172E+01
 0.79720641685E+01 0.79669626948E+01 0.79596262150E+01 0.79626195429E+01 0.79879003429E+01
 0.83101242356E+01 0.81247341233E+01 0.79754909461E+01 0.78824216623E+01 0.78416940859E+01
 0.78317445686E+01 0.78321727031E+01 0.78418426565E+01 0.78805095727E+01 0.79718172449E+01
 0.81218874015E+01 0.83103323897E+01 0.84992869387E+01 0.86842035636E+01 0.88900213114E+01
 0.90367140763E+01 0.90360865982E+01 0.88879230799E+01 0.86808502080E+01 0.84963906361E+01
 0.91302813949E+01 0.86361165129E+01 0.82271764984E+01 0.78824226155E+01 0.76458061364E+01
 0.75185912766E+01 0.74800748419E+01 0.75181349967E+01 0.76443968176E+01 0.78806726629E+01
 0.82271637831E+01 0.86391926916E+01 0.91349569232E+01 0.99078676554E+01 0.10867265243E+02
 0.11678202512E+02 0.11996736353E+02 0.11679502603E+02 0.10867273856E+02 0.99047979045E+01
 0.11962633114E+02 0.10047013539E+02 0.89501083688E+01 0.83308387155E+01 0.78416738136E+01
 0.75185926714E+01 0.73655768796E+01 0.73652283262E+01 0.75179762917E+01 0.78418470417E+01
 0.83327209270E+01 0.89534148973E+01 0.10049876912E+02 0.11962795107E+02 0.14442893944E+02
 0.16794034321E+02 0.18226302040E+02 0.18228213814E+02 0.16798183237E+02 0.14445967093E+02
 0.19281805765E+02 0.14577283876E+02 0.11131673162E+02 0.92580660855E+01 0.84099755522E+01
 0.78317504640E+01 0.74800904382E+01 0.73652249910E+01 0.74797259623E+01 0.78322027965E+01
 0.84117477158E+01 0.92597932800E+01 0.11131296580E+02 0.14574219611E+02 0.19277513745E+02
 0.24179649375E+02 0.27896809265E+02 0.29283657062E+02 0.27898588065E+02 0.24183174032E+02
 0.32519175293E+02 0.24281937692E+02 0.17025022386E+02 0.12025061508E+02 0.94614788120E+01
 0.84405132251E+01 0.78321827807E+01 0.75181258760E+01 0.75179657763E+01 0.78322069787E+01
 0.84411515447E+01 0.94616662895E+01 0.12023168234E+02 0.17021361935E+02 0.24279261440E+02
 0.32519799447E+02 0.39759615012E+02 0.44002972233E+02 0.44001373910E+02 0.39756750005E+02
 0.51402733843E+02 0.39809051865E+02 0.28052026153E+02 0.18503457497E+02 0.12370511056E+02
 0.94621043123E+01 0.84117384642E+01 0.78418325186E+01 0.76443921040E+01 0.78418571761E+01
 0.84117534895E+01 0.94616628150E+01 0.12369107166E+02 0.18501716204E+02 0.28052037668E+02
 0.39812584302E+02 0.51408804032E+02 0.59971202124E+02 0.63130585104E+02 0.59966394551E+02
 0.73703291203E+02 0.59977739064E+02 0.44070883392E+02 0.29453558553E+02 0.18501554543E+02
 0.12023784054E+02 0.92601622233E+01 0.83325829647E+01 0.78805196614E+01 0.78806817984E+01
 0.83327204951E+01 0.92597850007E+01 0.12023166110E+02 0.18501717354E+02 0.29455246940E+02
 0.44073744661E+02 0.59980632806E+02 0.73705242054E+02 0.81703153134E+02 0.81702495005E+02
 0.95352550341E+02 0.81694067948E+02 0.63140681498E+02 0.44072491300E+02 0.28050263241E+02
 0.17020886024E+02 0.11131673162E+02 0.89534605257E+01 0.82268276188E+01 0.79718169939E+01
 0.82271526297E+01 0.89534077360E+01 0.11131301189E+02 0.17021365468E+02 0.28052037770E+02
 0.44073747131E+02 0.63138877081E+02 0.81689259346E+02 0.95348274412E+02 0.10039473057E+03
 0.11128879786E+03 0.10038732093E+03 0.81694697135E+02 0.59982523693E+02 0.39811933541E+02
 0.24278430516E+02 0.14574209017E+02 0.10050053919E+02 0.86389981880E+01 0.81216893581E+01
 0.81218782437E+01 0.86391933921E+01 0.10049889282E+02 0.14574224043E+02 0.24279254244E+02
 0.39812587842E+02 0.59980633025E+02 0.81689252654E+02 0.10038087886E+03 0.11128589304E+03
 0.86792935263E+02 0.82421247584E+02 0.70574871161E+02 0.54478546149E+02 0.37973396398E+02
 0.24219519389E+02 0.14929809978E+02 0.10143190607E+02 0.84373294631E+01 0.77756334998E+01
 0.75398734842E+01 0.77756803873E+01 0.84373744666E+01 0.10143195059E+02 0.14929787932E+02
 0.24219512622E+02 0.37973419301E+02 0.54478573006E+02 0.70574876365E+02 0.82421238772E+02
 0.82423167305E+02 0.82421235611E+02 0.74310533941E+02 0.60387610551E+02 0.44238223478E+02
 0.29381251155E+02 0.18236215647E+02 0.11638221347E+02 0.88268684140E+01 0.78988534084E+01
 0.74508646602E+01 0.74507144447E+01 0.78987071784E+01 0.88270648626E+01 0.11638403516E+02
 0.18235856629E+02 0.29380898285E+02 0.44239459622E+02 0.60391185542E+02 0.74314800338E+02
 0.70577739477E+02 0.74334823644E+02 0.70574875785E+02 0.60387623321E+02 0.46557000615E+02
 0.32433124195E+02 0.20793770148E+02 0.13114890199E+02 0.93221399201E+01 0.80020505167E+01
 0.73953012087E+01 0.71811514810E+01 0.73949347489E+01 0.80019772116E+01 0.93224621842E+01
 0.13114747795E+02 0.20792674974E+02 0.32432214778E+02 0.46558080414E+02 0.60390777933E+02
 0.54477327092E+02 0.60450608375E+02 0.60451012619E+02 0.54478570615E+02 0.44238216279E+02
 0.32433112017E+02 0.21756047447E+02 0.14034057584E+02 0.97608213577E+01 0.80815860889E+01
 0.73669387077E+01 0.69878512128E+01 0.69876918395E+01 0.73667346721E+01 0.80817366793E+01
 0.97611626556E+01 0.14033870676E+02 0.21754818851E+02 0.32431124549E+02 0.44236285175E+02
 0.37969446933E+02 0.44350712889E+02 0.46712160094E+02 0.44353867388E+02 0.37973395978E+02
 0.29381227233E+02 0.20793779986E+02 0.14034068265E+02 0.99370162232E+01 0.81357447238E+01
 0.73558266931E+01 0.68705997587E+01 0.67073334899E+01 0.68706515283E+01 0.73558458155E+01
 0.81359477968E+01 0.99377873605E+01 0.14035116589E+02 0.20793784230E+02 0.29378969752E+02
 0.24219164783E+02 0.29550110812E+02 0.32695813183E+02 0.32696898374E+02 0.29552029705E+02
 0.24219507405E+02 0.18236219682E+02 0.13114911809E+02 0.97608089840E+01 0.81357358965E+01
 0.73532715388E+01 0.68173130067E+01 0.65505455895E+01 0.65507341711E+01 0.68174578962E+01
 0.73529378911E+01 0.81355999579E+01 0.97620607302E+01 0.13117431776E+02 0.18238133001E+02
 0.14932651045E+02 0.18451747370E+02 0.21156007857E+02 0.22169963854E+02 0.21154914735E+02
 0.18449490135E+02 0.14929799865E+02 0.11638233647E+02 0.93221322816E+01 0.80815677350E+01
 0.73558415524E+01 0.68173201472E+01 0.65010248464E+01 0.63994685680E+01 0.65013480161E+01
 0.68171194599E+01 0.73547365591E+01 0.80804813632E+01 0.93224621842E+01 0.11640341452E+02
 0.10143001162E+02 0.11871829743E+02 0.13537722671E+02 0.14561000750E+02 0.14559766803E+02
 0.13535057427E+02 0.11869892096E+02 0.10143184140E+02 0.88268764275E+01 0.80020389180E+01
 0.73669497430E+01 0.68706147395E+01 0.65505281539E+01 0.63994626022E+01 0.63996718678E+01
 0.65508881128E+01 0.68704576312E+01 0.73656826557E+01 0.79998349661E+01 0.88249424325E+01
 0.84341682023E+01 0.90527051860E+01 0.97553158322E+01 0.10338064469E+02 0.10565160708E+02
 0.10337175130E+02 0.97553116458E+01 0.90547999304E+01 0.84373430280E+01 0.78988573766E+01
 0.73952949752E+01 0.69878610199E+01 0.67073192443E+01 0.65507220510E+01 0.65013679984E+01
 0.65508934284E+01 0.67080995944E+01 0.69889377529E+01 0.73952779009E+01 0.78967786455E+01
 0.77755161584E+01 0.81132237385E+01 0.84182368825E+01 0.86579114716E+01 0.88011438990E+01
 0.88014888744E+01 0.86591635740E+01 0.84203798799E+01 0.81151449534E+01 0.77756474065E+01
 0.74508494609E+01 0.71811487957E+01 0.69876967910E+01 0.68706444078E+01 0.68174749734E+01
 0.68171293967E+01 0.68704355298E+01 0.69889328974E+01 0.71836518526E+01 0.74528072066E+01
 0.75427365964E+01 0.76621346893E+01 0.77984691980E+01 0.79290168983E+01 0.80248815958E+01
 0.80607310747E+01 0.80259696537E+01 0.79300664361E+01 0.77981617107E+01 0.76600803286E+01
 0.75398675625E+01 0.74507033777E+01 0.73949518232E+01 0.73667377001E+01 0.73558415524E+01
 0.73529418456E+01 0.73547174366E+01 0.73656746485E+01 0.73953012087E+01 0.74528113390E+01
 0.77754929583E+01 0.76621318611E+01 0.75811262474E+01 0.75426670882E+01 0.75377128029E+01
 0.75446139291E+01 0.75449401255E+01 0.75378871302E+01 0.75414260685E+01 0.75786659207E+01
 0.76602390159E+01 0.77756710939E+01 0.78987168351E+01 0.80019855623E+01 0.80817176791E+01
 0.81359431939E+01 0.81356041823E+01 0.80804807169E+01 0.79998549155E+01 0.78967843339E+01
 0.84341489006E+01 0.81132211799E+01 0.77984907444E+01 0.75426680099E+01 0.73736395830E+01
 0.72862844499E+01 0.72606740080E+01 0.72861359427E+01 0.73728681210E+01 0.75415666100E+01
 0.77984791609E+01 0.81153091823E+01 0.84373687298E+01 0.88270703247E+01 0.93224497318E+01
 0.97611568229E+01 0.99378080294E+01 0.97620672712E+01 0.93224573703E+01 0.88249398811E+01
 0.10143006973E+02 0.90527105850E+01 0.84182540114E+01 0.79290155816E+01 0.75376943875E+01
 0.72862857042E+01 0.71693447486E+01 0.71691525579E+01 0.72859523086E+01 0.75378440376E+01
 0.79302319244E+01 0.84203992851E+01 0.90546162963E+01 0.10143194403E+02 0.11638407879E+02
 0.13114747604E+02 0.14033884631E+02 0.14035119863E+02 0.13117409976E+02 0.11640333514E+02
 0.14932673090E+02 0.11871837899E+02 0.97553089573E+01 0.86579038528E+01 0.80248679737E+01
 0.75446192316E+01 0.72606882289E+01 0.71691494766E+01 0.72603565577E+01 0.75448112219E+01
 0.80259696537E+01 0.86589877072E+01 0.97549684938E+01 0.11869709836E+02 0.14929799865E+02
 0.18235860205E+02 0.20792670730E+02 0.21754813171E+02 0.20793770148E+02 0.18238132542E+02
 0.24219177666E+02 0.18451744762E+02 0.13537701646E+02 0.10338057538E+02 0.88011516486E+01
 0.80607399955E+01 0.75449493168E+01 0.72861276151E+01 0.72859427267E+01 0.75448151108E+01
 0.80610909437E+01 0.88013113801E+01 0.10336833407E+02 0.13535205253E+02 0.18449841261E+02
 0.24219513521E+02 0.29380885509E+02 0.32432207827E+02 0.32431129775E+02 0.29378980899E+02
 0.37969440032E+02 0.29550095551E+02 0.21155997435E+02 0.14561006523E+02 0.10565179341E+02
 0.88014933718E+01 0.80259612272E+01 0.75378780216E+01 0.73728637798E+01 0.75378533444E+01
 0.80259748493E+01 0.88013081279E+01 0.10564410607E+02 0.14559960700E+02 0.21156007989E+02
 0.29552377544E+02 0.37973411981E+02 0.44239462192E+02 0.46558093868E+02 0.44236294945E+02
 0.54477313318E+02 0.44350701640E+02 0.32695821975E+02 0.22169981326E+02 0.14559773692E+02
 0.10337166430E+02 0.86591483218E+01 0.79300647786E+01 0.75414351788E+01 0.75415747986E+01
 0.79302315836E+01 0.86589800738E+01 0.10336831638E+02 0.14559961816E+02 0.22171187283E+02
 0.32697783366E+02 0.44352634557E+02 0.54478583697E+02 0.60391192295E+02 0.60390771915E+02
 0.70577734273E+02 0.60450617243E+02 0.46712173474E+02 0.32696909376E+02 0.21154904181E+02
 0.13535039691E+02 0.97553089573E+01 0.84203906095E+01 0.77981732941E+01 0.75786654737E+01
 0.77984691980E+01 0.84203928857E+01 0.97549726802E+01 0.13535208542E+02 0.21156007857E+02
 0.32697785576E+02 0.46711050837E+02 0.60447446473E+02 0.70574875785E+02 0.74314782706E+02
 0.82423169660E+02 0.74334846105E+02 0.60451015400E+02 0.44353856546E+02 0.29552017626E+02
 0.18449480964E+02 0.11869904185E+02 0.90548162944E+01 0.81151432551E+01 0.76600692444E+01
 0.76602307598E+01 0.81153100427E+01 0.90546272613E+01 0.11869713771E+02 0.18449834697E+02
 0.29552380726E+02 0.44352634964E+02 0.60447440387E+02 0.74330565426E+02 0.82421229154E+02
 0.56994111143E+02 0.54107779700E+02 0.46298326359E+02 0.35751673534E+02 0.25116931293E+02
 0.16574202275E+02 0.11191703464E+02 0.87064813664E+01 0.77687698210E+01 0.72241492262E+01
 0.70371359566E+01 0.72241823868E+01 0.77688001901E+01 0.87064811211E+01 0.11191684438E+02
 0.16574196464E+02 0.25116949109E+02 0.35751694668E+02 0.46298330850E+02 0.54107773239E+02
 0.54108792889E+02 0.54107769175E+02 0.48742824228E+02 0.39570048074E+02 0.29055073846E+02
 0.19641374105E+02 0.12949611457E+02 0.93439608507E+01 0.79427246050E+01 0.72669544384E+01