   2   2   0   0
  0.8889977E+01  0.2283400E-09  0.2283400E-09  0.3937640E-09  0.5000000E-15
  1.000000000000000E-004
  CAR 
 unknown system                          
     78.17708759     -4.91438425  301      8.53461765      1.00000000
     -4.914  0.0000E+00  0.0000E+00
     -4.637  0.0000E+00  0.0000E+00
     -4.360  0.0000E+00  0.0000E+00
     -4.083  0.0000E+00  0.0000E+00
     -3.806  0.0000E+00  0.0000E+00
     -3.530  0.0000E+00  0.0000E+00
     -3.253  0.0000E+00  0.0000E+00
     -2.976 -0.2924E-38 -0.8099E-39
     -2.699 -0.4146E-28 -0.1148E-28
     -2.422 -0.1231E-19 -0.3411E-20
     -2.145 -0.7303E-13 -0.2023E-13
     -1.868 -0.8962E-08 -0.2482E-08
     -1.591 -0.2103E-04 -0.5826E-05
     -1.314 -0.4098E-03 -0.1193E-03
     -1.037  0.8445E-02  0.2220E-02
     -0.760  0.4497E-01  0.1468E-01
     -0.483  0.9074E-01  0.3981E-01
     -0.206  0.5643E-01  0.5544E-01
      0.071  0.1288E+00  0.9110E-01
      0.348  0.1654E+00  0.1369E+00
      0.625  0.1686E+00  0.1836E+00
      0.902  0.9484E-01  0.2099E+00
      1.179  0.1787E+00  0.2594E+00
      1.456  0.3233E+00  0.3489E+00
      1.733  0.2481E+00  0.4176E+00
      2.010  0.3198E+00  0.5062E+00
      2.287  0.2035E+00  0.5626E+00
      2.564  0.4903E+00  0.6983E+00
      2.841  0.1395E+01  0.1085E+01
      3.118  0.1705E+01  0.1557E+01
      3.395  0.1898E+01  0.2083E+01
      3.672  0.2687E+01  0.2827E+01
      3.949  0.2355E+01  0.3479E+01
      4.226  0.2275E+01  0.4109E+01
      4.503  0.1981E+01  0.4658E+01
      4.780  0.2872E+01  0.5453E+01
      5.057  0.2585E+01  0.6169E+01
      5.334  0.2677E+01  0.6911E+01
      5.611  0.2076E+01  0.7486E+01
      5.888  0.1837E+01  0.7995E+01
      6.164  0.2915E+01  0.8802E+01
      6.441  0.3397E+01  0.9743E+01
      6.718  0.3252E+01  0.1064E+02
      6.995  0.3398E+01  0.1158E+02
      7.272  0.3513E+01  0.1256E+02
      7.549  0.3289E+01  0.1347E+02
      7.826  0.2509E+01  0.1416E+02
      8.103  0.2402E+01  0.1483E+02
      8.380  0.2856E+01  0.1562E+02
      8.657  0.2261E+01  0.1625E+02
      8.934  0.1974E+01  0.1679E+02
      9.211  0.3584E+01  0.1779E+02
      9.488  0.4342E+01  0.1899E+02
      9.765  0.4094E+01  0.2012E+02
     10.042  0.3439E+01  0.2107E+02
     10.319  0.6002E+00  0.2124E+02
     10.596  0.8150E-01  0.2126E+02
     10.873  0.5195E+00  0.2141E+02
     11.150  0.8830E+00  0.2165E+02
     11.427  0.6450E+00  0.2183E+02
     11.704  0.3069E+00  0.2192E+02
     11.981  0.6646E+00  0.2210E+02
     12.258  0.3997E+00  0.2221E+02
     12.535  0.2747E+00  0.2229E+02
     12.812  0.2105E+00  0.2234E+02
     13.089  0.7470E+00  0.2255E+02
     13.366  0.5916E+00  0.2272E+02
     13.643  0.3483E+00  0.2281E+02
     13.920  0.2812E+00  0.2289E+02
     14.197  0.3648E+00  0.2299E+02
     14.474  0.4569E+00  0.2312E+02
     14.751  0.3603E+00  0.2322E+02
     15.028  0.2804E+00  0.2329E+02
     15.305  0.2891E+00  0.2337E+02
     15.582  0.2946E+00  0.2346E+02
     15.858  0.3545E+00  0.2355E+02
     16.135  0.2866E+00  0.2363E+02
     16.412  0.4899E+00  0.2377E+02
     16.689  0.3525E+00  0.2387E+02
     16.966  0.8803E-01  0.2389E+02
     17.243  0.9666E-01  0.2392E+02
     17.520  0.1452E+00  0.2396E+02
     17.797  0.1814E+00  0.2401E+02
     18.074  0.1879E+00  0.2406E+02
     18.351  0.2232E+00  0.2412E+02
     18.628  0.2428E+00  0.2419E+02
     18.905  0.3215E+00  0.2428E+02
     19.182  0.4246E+00  0.2440E+02
     19.459  0.4603E+00  0.2452E+02
     19.736  0.7876E+00  0.2474E+02
     20.013  0.8646E+00  0.2498E+02
     20.290  0.6791E+00  0.2517E+02
     20.567  0.4364E+00  0.2529E+02
     20.844  0.5520E+00  0.2544E+02
     21.121  0.7081E+00  0.2564E+02
     21.398  0.5675E+00  0.2580E+02
     21.675  0.8968E+00  0.2605E+02
     21.952  0.5615E+00  0.2620E+02
     22.229  0.5623E+00  0.2636E+02
     22.506  0.7299E+00  0.2656E+02
     22.783  0.7716E+00  0.2677E+02
     23.060  0.6428E+00  0.2695E+02
     23.337  0.5517E+00  0.2710E+02
     23.614  0.6516E+00  0.2728E+02
     23.891  0.7252E+00  0.2748E+02
     24.168  0.4717E+00  0.2762E+02
     24.445  0.4243E+00  0.2773E+02
     24.722  0.6504E+00  0.2791E+02
     24.999  0.4931E+00  0.2805E+02
     25.276  0.6706E+00  0.2824E+02
     25.552  0.5748E+00  0.2839E+02
     25.829  0.7048E+00  0.2859E+02
     26.106  0.5406E+00  0.2874E+02
     26.383  0.7199E+00  0.2894E+02
     26.660  0.1159E+01  0.2926E+02
     26.937  0.5109E+00  0.2940E+02
     27.214  0.8720E+00  0.2964E+02
     27.491  0.1161E+01  0.2996E+02
     27.768  0.5439E+00  0.3012E+02
     28.045  0.6321E+00  0.3029E+02
     28.322  0.8965E+00  0.3054E+02
     28.599  0.8077E+00  0.3076E+02
     28.876  0.6888E+00  0.3095E+02
     29.153  0.1545E+01  0.3138E+02
     29.430  0.7948E+00  0.3160E+02
     29.707  0.5702E+00  0.3176E+02
     29.984  0.1019E+01  0.3204E+02
     30.261  0.7473E+00  0.3225E+02
     30.538  0.6384E+00  0.3243E+02
     30.815  0.1191E+01  0.3276E+02
     31.092  0.8386E+00  0.3299E+02
     31.369  0.5823E+00  0.3315E+02
     31.646  0.8566E+00  0.3339E+02
     31.923  0.1168E+01  0.3371E+02
     32.200  0.9244E+00  0.3397E+02
     32.477  0.7456E+00  0.3417E+02
     32.754  0.5266E+00  0.3432E+02
     33.031  0.2531E+00  0.3439E+02
     33.308  0.9254E+00  0.3464E+02
     33.585  0.9078E+00  0.3490E+02
     33.862  0.7159E+00  0.3509E+02
     34.139  0.6696E+00  0.3528E+02
     34.416  0.6005E+00  0.3545E+02
     34.693  0.7057E+00  0.3564E+02
     34.970  0.8459E+00  0.3588E+02
     35.246  0.4676E+00  0.3600E+02
     35.523  0.3914E+00  0.3611E+02
     35.800  0.4859E+00  0.3625E+02
     36.077  0.8536E+00  0.3648E+02
     36.354  0.6165E+00  0.3666E+02
     36.631  0.7602E+00  0.3687E+02
     36.908  0.1039E+01  0.3715E+02
     37.185  0.6281E+00  0.3733E+02
     37.462  0.1024E+01  0.3761E+02
     37.739  0.6682E+00  0.3780E+02
     38.016  0.5927E+00  0.3796E+02
     38.293  0.1039E+01  0.3825E+02
     38.570  0.7703E+00  0.3846E+02
     38.847  0.1109E+01  0.3877E+02
     39.124  0.8169E+00  0.3899E+02
     39.401  0.7563E+00  0.3920E+02
     39.678  0.9124E+00  0.3946E+02
     39.955  0.6220E+00  0.3963E+02
     40.232  0.1121E+01  0.3994E+02
     40.509  0.8235E+00  0.4017E+02
     40.786  0.8903E+00  0.4041E+02
     41.063  0.8590E+00  0.4065E+02
     41.340  0.7154E+00  0.4085E+02
     41.617  0.7141E+00  0.4105E+02
     41.894  0.6172E+00  0.4122E+02
     42.171  0.7448E+00  0.4143E+02
     42.448  0.9283E+00  0.4168E+02
     42.725  0.7255E+00  0.4188E+02
     43.002  0.9624E+00  0.4215E+02
     43.279  0.5771E+00  0.4231E+02
     43.556  0.8195E+00  0.4254E+02
     43.833  0.7292E+00  0.4274E+02
     44.110  0.1017E+01  0.4302E+02
     44.387  0.1091E+01  0.4332E+02
     44.664  0.9019E+00  0.4357E+02
     44.940  0.6277E+00  0.4375E+02
     45.217  0.4500E+00  0.4387E+02
     45.494  0.6882E+00  0.4406E+02
     45.771  0.5568E+00  0.4422E+02
     46.048  0.7920E+00  0.4444E+02
     46.325  0.1167E+01  0.4476E+02
     46.602  0.1076E+01  0.4506E+02
     46.879  0.1171E+01  0.4538E+02
     47.156  0.1089E+01  0.4568E+02
     47.433  0.9772E+00  0.4595E+02
     47.710  0.7277E+00  0.4615E+02
     47.987  0.8007E+00  0.4638E+02
     48.264  0.1192E+01  0.4671E+02
     48.541  0.1219E+01  0.4704E+02
     48.818  0.1051E+01  0.4734E+02
     49.095  0.8473E+00  0.4757E+02
     49.372  0.1149E+01  0.4789E+02
     49.649  0.1261E+01  0.4824E+02
     49.926  0.9024E+00  0.4849E+02
     50.203  0.9428E+00  0.4875E+02
     50.480  0.6594E+00  0.4893E+02
     50.757  0.5251E+00  0.4908E+02
     51.034  0.8685E+00  0.4932E+02
     51.311  0.8798E+00  0.4956E+02
     51.588  0.5271E+00  0.4971E+02
     51.865  0.4577E+00  0.4983E+02
     52.142  0.1026E+01  0.5012E+02
     52.419  0.9750E+00  0.5039E+02
     52.696  0.1362E+01  0.5076E+02
     52.973  0.8834E+00  0.5101E+02
     53.250  0.7020E+00  0.5120E+02
     53.527  0.1166E+01  0.5153E+02
     53.804  0.1407E+01  0.5192E+02
     54.081  0.1039E+01  0.5220E+02
     54.358  0.8479E+00  0.5244E+02
     54.635  0.8451E+00  0.5267E+02
     54.911  0.5134E+00  0.5282E+02
     55.188  0.9512E+00  0.5308E+02
     55.465  0.1198E+01  0.5341E+02
     55.742  0.1597E+01  0.5385E+02
     56.019  0.1064E+01  0.5415E+02
     56.296  0.1069E+01  0.5444E+02
     56.573  0.1266E+01  0.5479E+02
     56.850  0.9457E+00  0.5506E+02
     57.127  0.1038E+01  0.5534E+02
     57.404  0.1235E+01  0.5569E+02
     57.681  0.1400E+01  0.5607E+02
     57.958  0.6964E+00  0.5627E+02
     58.235  0.1114E+01  0.5657E+02
     58.512  0.1440E+01  0.5697E+02
     58.789  0.1291E+01  0.5733E+02
     59.066  0.1133E+01  0.5765E+02
     59.343  0.1246E+01  0.5799E+02
     59.620  0.1039E+01  0.5828E+02
     59.897  0.1639E+01  0.5873E+02
     60.174  0.1283E+01  0.5909E+02
     60.451  0.1400E+01  0.5948E+02
     60.728  0.1595E+01  0.5992E+02
     61.005  0.1621E+01  0.6037E+02
     61.282  0.1682E+01  0.6083E+02
     61.559  0.1507E+01  0.6125E+02
     61.836  0.2434E+01  0.6192E+02
     62.113  0.1983E+01  0.6247E+02
     62.390  0.1409E+01  0.6286E+02
     62.667  0.1902E+01  0.6339E+02
     62.944  0.2711E+01  0.6414E+02
     63.221  0.3175E+01  0.6502E+02
     63.498  0.2373E+01  0.6568E+02
     63.775  0.2355E+01  0.6633E+02
     64.052  0.1737E+01  0.6681E+02
     64.329  0.1689E+01  0.6728E+02
     64.605  0.1485E+01  0.6769E+02
     64.882  0.1182E+01  0.6802E+02
     65.159  0.1427E+01  0.6841E+02
     65.436  0.1604E+01  0.6886E+02
     65.713  0.1625E+01  0.6931E+02
     65.990  0.1793E+01  0.6980E+02
     66.267  0.1091E+01  0.7010E+02
     66.544  0.1500E+01  0.7052E+02
     66.821  0.1266E+01  0.7087E+02
     67.098  0.1411E+01  0.7126E+02
     67.375  0.1419E+01  0.7165E+02
     67.652  0.1040E+01  0.7194E+02
     67.929  0.1015E+01  0.7222E+02
     68.206  0.1320E+01  0.7259E+02
     68.483  0.1947E+01  0.7313E+02
     68.760  0.1710E+01  0.7360E+02
     69.037  0.1101E+01  0.7391E+02
     69.314  0.1845E+01  0.7442E+02
     69.591  0.1598E+01  0.7486E+02
     69.868  0.9050E+00  0.7511E+02
     70.145  0.1400E+01  0.7550E+02
     70.422  0.1219E+01  0.7584E+02
     70.699  0.1426E+01  0.7623E+02
     70.976  0.1314E+01  0.7660E+02
     71.253  0.1880E+01  0.7712E+02
     71.530  0.1040E+01  0.7740E+02
     71.807  0.9138E+00  0.7766E+02
     72.084  0.1294E+01  0.7802E+02
     72.361  0.1532E+01  0.7844E+02
     72.638  0.1269E+01  0.7879E+02
     72.915  0.7658E+00  0.7900E+02
     73.192  0.6999E+00  0.7920E+02
     73.469  0.1403E+01  0.7959E+02
     73.746  0.9025E+00  0.7984E+02
     74.023  0.4503E+00  0.7996E+02
     74.299  0.8325E-01  0.7998E+02
     74.576  0.5872E-01  0.8000E+02
     74.853 -0.7880E-03  0.8000E+02
     75.130 -0.2013E-03  0.8000E+02
     75.407 -0.1011E-06  0.8000E+02
     75.684 -0.8616E-12  0.8000E+02
     75.961  0.0000E+00  0.8000E+02
     76.238  0.0000E+00  0.8000E+02
     76.515  0.0000E+00  0.8000E+02
     76.792  0.0000E+00  0.8000E+02
     77.069  0.0000E+00  0.8000E+02
     77.346  0.0000E+00  0.8000E+02
     77.623  0.0000E+00  0.8000E+02
     77.900  0.0000E+00  0.8000E+02
     78.177  0.0000E+00  0.8000E+02
