unknown system                          
   1.00000000000000     
     3.445083    0.000000    0.000000
     0.000000    3.445083    0.000000
     0.000000    0.000000    3.445083
   Fe
     4
Direct
  0.000000  0.000000  0.000000
  0.500000  0.500000  0.000000
  0.500000  0.000000  0.500000
  0.000000  0.500000  0.500000
 
   24   24   24
  339.65      313.27      245.66      163.49      92.430      45.860      23.449      15.606      11.832      10.343    
  9.7187      8.8464      8.3352      8.8464      9.7187      10.343      11.832      15.606      23.449      45.860    
  92.430      163.49      245.66      313.27      313.27      288.90      226.43      150.57      85.171      42.658    
  22.529      15.464      11.889      10.527      10.013      9.2834      8.8464      9.2834      10.013      10.527    
  11.889      15.464      22.529      42.658      85.171      150.57      226.43      288.90      245.66      226.43    
  177.19      117.64      66.889      34.817      20.380      15.033      11.971      10.855      10.497      10.013    
  9.7187      10.013      10.497      10.855      11.971      15.033      20.380      34.817      66.889      117.64    
  177.19      226.43      163.49      150.57      117.64      78.285      45.690      26.280      18.187      14.381    
  12.039      11.164      10.855      10.527      10.343      10.527      10.855      11.164      12.039      14.381    
  18.187      26.280      45.690      78.285      117.64      150.57      92.430      85.171      66.889      45.690    
  29.165      20.276      16.411      13.806      12.441      12.039      11.971      11.889      11.832      11.889    
  11.971      12.039      12.441      13.806      16.411      20.276      29.165      45.690      66.889      85.171    
  45.860      42.658      34.817      26.280      20.276      17.102      14.946      13.839      13.806      14.381    
  15.033      15.464      15.606      15.464      15.033      14.381      13.806      13.839      14.946      17.102    
  20.276      26.280      34.817      42.658      23.449      22.529      20.380      18.187      16.411      14.946    
  14.361      14.946      16.411      18.187      20.380      22.529      23.449      22.529      20.380      18.187    
  16.411      14.946      14.361      14.946      16.411      18.187      20.380      22.529      15.606      15.464    
  15.033      14.381      13.806      13.839      14.946      17.102      20.276      26.280      34.817      42.658    
  45.860      42.658      34.817      26.280      20.276      17.102      14.946      13.839      13.806      14.381    
  15.033      15.464      11.832      11.889      11.971      12.039      12.441      13.806      16.411      20.276    
  29.165      45.690      66.889      85.171      92.430      85.171      66.889      45.690      29.165      20.276    
  16.411      13.806      12.441      12.039      11.971      11.889      10.343      10.527      10.855      11.164    
  12.039      14.381      18.187      26.280      45.690      78.285      117.64      150.57      163.49      150.57    
  117.64      78.285      45.690      26.280      18.187      14.381      12.039      11.164      10.855      10.527    
  9.7187      10.013      10.497      10.855      11.971      15.033      20.380      34.817      66.889      117.64    
  177.19      226.43      245.66      226.43      177.19      117.64      66.889      34.817      20.380      15.033    
  11.971      10.855      10.497      10.013      8.8464      9.2834      10.013      10.527      11.889      15.464    
  22.529      42.658      85.171      150.57      226.43      288.90      313.27      288.90      226.43      150.57    
  85.171      42.658      22.529      15.464      11.889      10.527      10.013      9.2834      8.3352      8.8464    
  9.7187      10.343      11.832      15.606      23.449      45.860      92.430      163.49      245.66      313.27    
  339.65      313.27      245.66      163.49      92.430      45.860      23.449      15.606      11.832      10.343    
  9.7187      8.8464      8.8464      9.2834      10.013      10.527      11.889      15.464      22.529      42.658    
  85.171      150.57      226.43      288.90      313.27      288.90      226.43      150.57      85.171      42.658    
  22.529      15.464      11.889      10.527      10.013      9.2834      9.7187      10.013      10.497      10.855    
  11.971      15.033      20.380      34.817      66.889      117.64      177.19      226.43      245.66      226.43    
  177.19      117.64      66.889      34.817      20.380      15.033      11.971      10.855      10.497      10.013    
  10.343      10.527      10.855      11.164      12.039      14.381      18.187      26.280      45.690      78.285    
  117.64      150.57      163.49      150.57      117.64      78.285      45.690      26.280      18.187      14.381    
  12.039      11.164      10.855      10.527      11.832      11.889      11.971      12.039      12.441      13.806    
  16.411      20.276      29.165      45.690      66.889      85.171      92.430      85.171      66.889      45.690    
  29.165      20.276      16.411      13.806      12.441      12.039      11.971      11.889      15.606      15.464    
  15.033      14.381      13.806      13.839      14.946      17.102      20.276      26.280      34.817      42.658    
  45.860      42.658      34.817      26.280      20.276      17.102      14.946      13.839      13.806      14.381    
  15.033      15.464      23.449      22.529      20.380      18.187      16.411      14.946      14.361      14.946    
  16.411      18.187      20.380      22.529      23.449      22.529      20.380      18.187      16.411      14.946    
  14.361      14.946      16.411      18.187      20.380      22.529      45.860      42.658      34.817      26.280    
  20.276      17.102      14.946      13.839      13.806      14.381      15.033      15.464      15.606      15.464    
  15.033      14.381      13.806      13.839      14.946      17.102      20.276      26.280      34.817      42.658    
  92.430      85.171      66.889      45.690      29.165      20.276      16.411      13.806      12.441      12.039    
  11.971      11.889      11.832      11.889      11.971      12.039      12.441      13.806      16.411      20.276    
  29.165      45.690      66.889      85.171      163.49      150.57      117.64      78.285      45.690      26.280    
  18.187      14.381      12.039      11.164      10.855      10.527      10.343      10.527      10.855      11.164    
  12.039      14.381      18.187      26.280      45.690      78.285      117.64      150.57      245.66      226.43    
  177.19      117.64      66.889      34.817      20.380      15.033      11.971      10.855      10.497      10.013    
  9.7187      10.013      10.497      10.855      11.971      15.033      20.380      34.817      66.889      117.64    
  177.19      226.43      313.27      288.90      226.43      150.57      85.171      42.658      22.529      15.464    
  11.889      10.527      10.013      9.2834      8.8464      9.2834      10.013      10.527      11.889      15.464    
  22.529      42.658      85.171      150.57      226.43      288.90      313.27      288.90      226.43      150.57    
  85.171      42.658      22.529      15.464      11.889      10.527      10.013      9.2834      8.8464      9.2834    
  10.013      10.527      11.889      15.464      22.529      42.658      85.171      150.57      226.43      288.90    
  288.90      266.37      208.65      138.65      78.503      39.758      21.718      15.323      11.936      10.686    
  10.264      9.6557      9.2834      9.6557      10.264      10.686      11.936      15.323      21.718      39.758    
  78.503      138.65      208.65      266.37      226.43      208.65      163.17      108.29      61.759      32.687    
  19.828      14.902      12.003      10.968      10.666      10.264      10.013      10.264      10.666      10.968    
  12.003      14.902      19.828      32.687      61.759      108.29      163.17      208.65      150.57      138.65    
  108.29      72.154      42.473      25.059      17.878      14.272      12.061      11.242      10.968      10.686    
  10.527      10.686      10.968      11.242      12.061      14.272      17.878      25.059      42.473      72.154    
  108.29      138.65      85.171      78.503      61.759      42.473      27.618      19.752      16.195      13.719    
  12.435      12.061      12.003      11.936      11.889      11.936      12.003      12.061      12.435      13.719    
  16.195      19.752      27.618      42.473      61.759      78.503      42.658      39.758      32.687      25.059    
  19.752      16.851      14.788      13.742      13.719      14.272      14.902      15.323      15.464      15.323    
  14.902      14.272      13.719      13.742      14.788      16.851      19.752      25.059      32.687      39.758    
  22.529      21.718      19.828      17.878      16.195      14.788      14.230      14.788      16.195      17.878    
  19.828      21.718      22.529      21.718      19.828      17.878      16.195      14.788      14.230      14.788    
  16.195      17.878      19.828      21.718      15.464      15.323      14.902      14.272      13.719      13.742    
  14.788      16.851      19.752      25.059      32.687      39.758      42.658      39.758      32.687      25.059    
  19.752      16.851      14.788      13.742      13.719      14.272      14.902      15.323      11.889      11.936    
  12.003      12.061      12.435      13.719      16.195      19.752      27.618      42.473      61.759      78.503    
  85.171      78.503      61.759      42.473      27.618      19.752      16.195      13.719      12.435      12.061    
  12.003      11.936      10.527      10.686      10.968      11.242      12.061      14.272      17.878      25.059    
  42.473      72.154      108.29      138.65      150.57      138.65      108.29      72.154      42.473      25.059    
  17.878      14.272      12.061      11.242      10.968      10.686      10.013      10.264      10.666      10.968    
  12.003      14.902      19.828      32.687      61.759      108.29      163.17      208.65      226.43      208.65    
  163.17      108.29      61.759      32.687      19.828      14.902      12.003      10.968      10.666      10.264    
  9.2834      9.6557      10.264      10.686      11.936      15.323      21.718      39.758      78.503      138.65    
  208.65      266.37      288.90      266.37      208.65      138.65      78.503      39.758      21.718      15.323    
  11.936      10.686      10.264      9.6557      8.8464      9.2834      10.013      10.527      11.889      15.464    
  22.529      42.658      85.171      150.57      226.43      288.90      313.27      288.90      226.43      150.57    
  85.171      42.658      22.529      15.464      11.889      10.527      10.013      9.2834      9.2834      9.6557    
  10.264      10.686      11.936      15.323      21.718      39.758      78.503      138.65      208.65      266.37    
  288.90      266.37      208.65      138.65      78.503      39.758      21.718      15.323      11.936      10.686    
  10.264      9.6557      10.013      10.264      10.666      10.968      12.003      14.902      19.828      32.687    
  61.759      108.29      163.17      208.65      226.43      208.65      163.17      108.29      61.759      32.687    
  19.828      14.902      12.003      10.968      10.666      10.264      10.527      10.686      10.968      11.242    
  12.061      14.272      17.878      25.059      42.473      72.154      108.29      138.65      150.57      138.65    
  108.29      72.154      42.473      25.059      17.878      14.272      12.061      11.242      10.968      10.686    
  11.889      11.936      12.003      12.061      12.435      13.719      16.195      19.752      27.618      42.473    
  61.759      78.503      85.171      78.503      61.759      42.473      27.618      19.752      16.195      13.719    
  12.435      12.061      12.003      11.936      15.464      15.323      14.902      14.272      13.719      13.742    
  14.788      16.851      19.752      25.059      32.687      39.758      42.658      39.758      32.687      25.059    
  19.752      16.851      14.788      13.742      13.719      14.272      14.902      15.323      22.529      21.718    
  19.828      17.878      16.195      14.788      14.230      14.788      16.195      17.878      19.828      21.718    
  22.529      21.718      19.828      17.878      16.195      14.788      14.230      14.788      16.195      17.878    
  19.828      21.718      42.658      39.758      32.687      25.059      19.752      16.851      14.788      13.742    
  13.719      14.272      14.902      15.323      15.464      15.323      14.902      14.272      13.719      13.742    
  14.788      16.851      19.752      25.059      32.687      39.758      85.171      78.503      61.759      42.473    
  27.618      19.752      16.195      13.719      12.435      12.061      12.003      11.936      11.889      11.936    
  12.003      12.061      12.435      13.719      16.195      19.752      27.618      42.473      61.759      78.503    
  150.57      138.65      108.29      72.154      42.473      25.059      17.878      14.272      12.061      11.242    
  10.968      10.686      10.527      10.686      10.968      11.242      12.061      14.272      17.878      25.059    
  42.473      72.154      108.29      138.65      226.43      208.65      163.17      108.29      61.759      32.687    
  19.828      14.902      12.003      10.968      10.666      10.264      10.013      10.264      10.666      10.968    
  12.003      14.902      19.828      32.687      61.759      108.29      163.17      208.65      288.90      266.37    
  208.65      138.65      78.503      39.758      21.718      15.323      11.936      10.686      10.264      9.6557    
  9.2834      9.6557      10.264      10.686      11.936      15.323      21.718      39.758      78.503      138.65    
  208.65      266.37      245.66      226.43      177.19      117.64      66.889      34.817      20.380      15.033    
  11.971      10.855      10.497      10.013      9.7187      10.013      10.497      10.855      11.971      15.033    
  20.380      34.817      66.889      117.64      177.19      226.43      226.43      208.65      163.17      108.29    
  61.759      32.687      19.828      14.902      12.003      10.968      10.666      10.264      10.013      10.264    
  10.666      10.968      12.003      14.902      19.828      32.687      61.759      108.29      163.17      208.65    
  177.19      163.17      127.41      84.614      49.001      27.566      18.532      14.517      12.047      11.173    
  10.939      10.666      10.497      10.666      10.939      11.173      12.047      14.517      18.532      27.566    
  49.001      84.614      127.41      163.17      117.64      108.29      84.614      56.830      34.623      22.193    
  17.090      13.958      12.091      11.399      11.173      10.968      10.855      10.968      11.173      11.399    
  12.091      13.958      17.090      22.193      34.623      56.830      84.614      108.29      66.889      61.759    
  49.001      34.623      23.967      18.524      15.599      13.474      12.403      12.091      12.047      12.003    
  11.971      12.003      12.047      12.091      12.403      13.474      15.599      18.524      23.967      34.623    
  49.001      61.759      34.817      32.687      27.566      22.193      18.524      16.172      14.370      13.483    
  13.474      13.958      14.517      14.902      15.033      14.902      14.517      13.958      13.474      13.483    
  14.370      16.172      18.524      22.193      27.566      32.687      20.380      19.828      18.532      17.090    
  15.599      14.370      13.891      14.370      15.599      17.090      18.532      19.828      20.380      19.828    
  18.532      17.090      15.599      14.370      13.891      14.370      15.599      17.090      18.532      19.828    
  15.033      14.902      14.517      13.958      13.474      13.483      14.370      16.172      18.524      22.193    
  27.566      32.687      34.817      32.687      27.566      22.193      18.524      16.172      14.370      13.483    
  13.474      13.958      14.517      14.902      11.971      12.003      12.047      12.091      12.403      13.474    
  15.599      18.524      23.967      34.623      49.001      61.759      66.889      61.759      49.001      34.623    
  23.967      18.524      15.599      13.474      12.403      12.091      12.047      12.003      10.855      10.968    
  11.173      11.399      12.091      13.958      17.090      22.193      34.623      56.830      84.614      108.29    
  117.64      108.29      84.614      56.830      34.623      22.193      17.090      13.958      12.091      11.399    
  11.173      10.968      10.497      10.666      10.939      11.173      12.047      14.517      18.532      27.566    
  49.001      84.614      127.41      163.17      177.19      163.17      127.41      84.614      49.001      27.566    
  18.532      14.517      12.047      11.173      10.939      10.666      10.013      10.264      10.666      10.968    
  12.003      14.902      19.828      32.687      61.759      108.29      163.17      208.65      226.43      208.65    
  163.17      108.29      61.759      32.687      19.828      14.902      12.003      10.968      10.666      10.264    
  9.7187      10.013      10.497      10.855      11.971      15.033      20.380      34.817      66.889      117.64    
  177.19      226.43      245.66      226.43      177.19      117.64      66.889      34.817      20.380      15.033    
  11.971      10.855      10.497      10.013      10.013      10.264      10.666      10.968      12.003      14.902    
  19.828      32.687      61.759      108.29      163.17      208.65      226.43      208.65      163.17      108.29    
  61.759      32.687      19.828      14.902      12.003      10.968      10.666      10.264      10.497      10.666    
  10.939      11.173      12.047      14.517      18.532      27.566      49.001      84.614      127.41      163.17    
  177.19      163.17      127.41      84.614      49.001      27.566      18.532      14.517      12.047      11.173    
  10.939      10.666      10.855      10.968      11.173      11.399      12.091      13.958      17.090      22.193    
  34.623      56.830      84.614      108.29      117.64      108.29      84.614      56.830      34.623      22.193    
  17.090      13.958      12.091      11.399      11.173      10.968      11.971      12.003      12.047      12.091    
  12.403      13.474      15.599      18.524      23.967      34.623      49.001      61.759      66.889      61.759    
  49.001      34.623      23.967      18.524      15.599      13.474      12.403      12.091      12.047      12.003    
  15.033      14.902      14.517      13.958      13.474      13.483      14.370      16.172      18.524      22.193    
  27.566      32.687      34.817      32.687      27.566      22.193      18.524      16.172      14.370      13.483    
  13.474      13.958      14.517      14.902      20.380      19.828      18.532      17.090      15.599      14.370    
  13.891      14.370      15.599      17.090      18.532      19.828      20.380      19.828      18.532      17.090    
  15.599      14.370      13.891      14.370      15.599      17.090      18.532      19.828      34.817      32.687    
  27.566      22.193      18.524      16.172      14.370      13.483      13.474      13.958      14.517      14.902    
  15.033      14.902      14.517      13.958      13.474      13.483      14.370      16.172      18.524      22.193    
  27.566      32.687      66.889      61.759      49.001      34.623      23.967      18.524      15.599      13.474    
  12.403      12.091      12.047      12.003      11.971      12.003      12.047      12.091      12.403      13.474    
  15.599      18.524      23.967      34.623      49.001      61.759      117.64      108.29      84.614      56.830    
  34.623      22.193      17.090      13.958      12.091      11.399      11.173      10.968      10.855      10.968    
  11.173      11.399      12.091      13.958      17.090      22.193      34.623      56.830      84.614      108.29    
  177.19      163.17      127.41      84.614      49.001      27.566      18.532      14.517      12.047      11.173    
  10.939      10.666      10.497      10.666      10.939      11.173      12.047      14.517      18.532      27.566    
  49.001      84.614      127.41      163.17      226.43      208.65      163.17      108.29      61.759      32.687    
  19.828      14.902      12.003      10.968      10.666      10.264      10.013      10.264      10.666      10.968    
  12.003      14.902      19.828      32.687      61.759      108.29      163.17      208.65      163.49      150.57    
  117.64      78.285      45.690      26.280      18.187      14.381      12.039      11.164      10.855      10.527    
  10.343      10.527      10.855      11.164      12.039      14.381      18.187      26.280      45.690      78.285    
  117.64      150.57      150.57      138.65      108.29      72.154      42.473      25.059      17.878      14.272    
  12.061      11.242      10.968      10.686      10.527      10.686      10.968      11.242      12.061      14.272    
  17.878      25.059      42.473      72.154      108.29      138.65      117.64      108.29      84.614      56.830    
  34.623      22.193      17.090      13.958      12.091      11.399      11.173      10.968      10.855      10.968    
  11.173      11.399      12.091      13.958      17.090      22.193      34.623      56.830      84.614      108.29    
  78.285      72.154      56.830      39.363      26.148      19.287      15.984      13.515      12.127      11.597    
  11.399      11.242      11.164      11.242      11.399      11.597      12.127      13.515      15.984      19.287    
  26.148      39.363      56.830      72.154      45.690      42.473      34.623      26.148      20.261      17.132    
  14.777      13.142      12.354      12.127      12.091      12.061      12.039      12.061      12.091      12.127    
  12.354      13.142      14.777      17.132      20.261      26.148      34.623      42.473      26.280      25.059    
  22.193      19.287      17.132      15.246      13.830      13.150      13.142      13.515      13.958      14.272    
  14.381      14.272      13.958      13.515      13.142      13.150      13.830      15.246      17.132      19.287    
  22.193      25.059      18.187      17.878      17.090      15.984      14.777      13.830      13.470      13.830    
  14.777      15.984      17.090      17.878      18.187      17.878      17.090      15.984      14.777      13.830    
  13.470      13.830      14.777      15.984      17.090      17.878      14.381      14.272      13.958      13.515    
  13.142      13.150      13.830      15.246      17.132      19.287      22.193      25.059      26.280      25.059    
  22.193      19.287      17.132      15.246      13.830      13.150      13.142      13.515      13.958      14.272    
  12.039      12.061      12.091      12.127      12.354      13.142      14.777      17.132      20.261      26.148    
  34.623      42.473      45.690      42.473      34.623      26.148      20.261      17.132      14.777      13.142    
  12.354      12.127      12.091      12.061      11.164      11.242      11.399      11.597      12.127      13.515    
  15.984      19.287      26.148      39.363      56.830      72.154      78.285      72.154      56.830      39.363    
  26.148      19.287      15.984      13.515      12.127      11.597      11.399      11.242      10.855      10.968    
  11.173      11.399      12.091      13.958      17.090      22.193      34.623      56.830      84.614      108.29    
  117.64      108.29      84.614      56.830      34.623      22.193      17.090      13.958      12.091      11.399    
  11.173      10.968      10.527      10.686      10.968      11.242      12.061      14.272      17.878      25.059    
  42.473      72.154      108.29      138.65      150.57      138.65      108.29      72.154      42.473      25.059    
  17.878      14.272      12.061      11.242      10.968      10.686      10.343      10.527      10.855      11.164    
  12.039      14.381      18.187      26.280      45.690      78.285      117.64      150.57      163.49      150.57    
  117.64      78.285      45.690      26.280      18.187      14.381      12.039      11.164      10.855      10.527    
  10.527      10.686      10.968      11.242      12.061      14.272      17.878      25.059      42.473      72.154    
  108.29      138.65      150.57      138.65      108.29      72.154      42.473      25.059      17.878      14.272    
  12.061      11.242      10.968      10.686      10.855      10.968      11.173      11.399      12.091      13.958    
  17.090      22.193      34.623      56.830      84.614      108.29      117.64      108.29      84.614      56.830    
  34.623      22.193      17.090      13.958      12.091      11.399      11.173      10.968      11.164      11.242    
  11.399      11.597      12.127      13.515      15.984      19.287      26.148      39.363      56.830      72.154    
  78.285      72.154      56.830      39.363      26.148      19.287      15.984      13.515      12.127      11.597    
  11.399      11.242      12.039      12.061      12.091      12.127      12.354      13.142      14.777      17.132    
  20.261      26.148      34.623      42.473      45.690      42.473      34.623      26.148      20.261      17.132    
  14.777      13.142      12.354      12.127      12.091      12.061      14.381      14.272      13.958      13.515    
  13.142      13.150      13.830      15.246      17.132      19.287      22.193      25.059      26.280      25.059    
  22.193      19.287      17.132      15.246      13.830      13.150      13.142      13.515      13.958      14.272    
  18.187      17.878      17.090      15.984      14.777      13.830      13.470      13.830      14.777      15.984    
  17.090      17.878      18.187      17.878      17.090      15.984      14.777      13.830      13.470      13.830    
  14.777      15.984      17.090      17.878      26.280      25.059      22.193      19.287      17.132      15.246    
  13.830      13.150      13.142      13.515      13.958      14.272      14.381      14.272      13.958      13.515    
  13.142      13.150      13.830      15.246      17.132      19.287      22.193      25.059      45.690      42.473    
  34.623      26.148      20.261      17.132      14.777      13.142      12.354      12.127      12.091      12.061    
  12.039      12.061      12.091      12.127      12.354      13.142      14.777      17.132      20.261      26.148    
  34.623      42.473      78.285      72.154      56.830      39.363      26.148      19.287      15.984      13.515    
  12.127      11.597      11.399      11.242      11.164      11.242      11.399      11.597      12.127      13.515    
  15.984      19.287      26.148      39.363      56.830      72.154      117.64      108.29      84.614      56.830    
  34.623      22.193      17.090      13.958      12.091      11.399      11.173      10.968      10.855      10.968    
  11.173      11.399      12.091      13.958      17.090      22.193      34.623      56.830      84.614      108.29    
  150.57      138.65      108.29      72.154      42.473      25.059      17.878      14.272      12.061      11.242    
  10.968      10.686      10.527      10.686      10.968      11.242      12.061      14.272      17.878      25.059    
  42.473      72.154      108.29      138.65      92.430      85.171      66.889      45.690      29.165      20.276    
  16.411      13.806      12.441      12.039      11.971      11.889      11.832      11.889      11.971      12.039    
  12.441      13.806      16.411      20.276      29.165      45.690      66.889      85.171      85.171      78.503    
  61.759      42.473      27.618      19.752      16.195      13.719      12.435      12.061      12.003      11.936    
  11.889      11.936      12.003      12.061      12.435      13.719      16.195      19.752      27.618      42.473    
  61.759      78.503      66.889      61.759      49.001      34.623      23.967      18.524      15.599      13.474    
  12.403      12.091      12.047      12.003      11.971      12.003      12.047      12.091      12.403      13.474    
  15.599      18.524      23.967      34.623      49.001      61.759      45.690      42.473      34.623      26.148    
  20.261      17.132      14.777      13.142      12.354      12.127      12.091      12.061      12.039      12.061    
  12.091      12.127      12.354      13.142      14.777      17.132      20.261      26.148      34.623      42.473    
  29.165      27.618      23.967      20.261      17.699      15.650      13.943      12.872      12.423      12.354    
  12.403      12.435      12.441      12.435      12.403      12.354      12.423      12.872      13.943      15.650    
  17.699      20.261      23.967      27.618      20.276      19.752      18.524      17.132      15.650      14.292    
  13.325      12.871      12.872      13.142      13.474      13.719      13.806      13.719      13.474      13.142    
  12.872      12.871      13.325      14.292      15.650      17.132      18.524      19.752      16.411      16.195    