unknown system                          
   1.00000000000000     
     3.445083    0.000000    0.000000
     0.000000    3.445083    0.000000
     0.000000    0.000000    3.445083
   Fe
     4
Direct
  0.000000  0.000000  0.000000
  0.500000  0.500000  0.000000
  0.500000  0.000000  0.500000
  0.000000  0.500000  0.500000
 
   24   24   24
 0.33964920133E+03 0.31327027654E+03 0.24565894716E+03 0.16349422763E+03 0.92430363050E+02
 0.45859869539E+02 0.23449088303E+02 0.15605563159E+02 0.11832349898E+02 0.10343101998E+02
 0.97186940392E+01 0.88464461674E+01 0.83351509180E+01 0.88464461674E+01 0.97186940392E+01
 0.10343101998E+02 0.11832349898E+02 0.15605563159E+02 0.23449088303E+02 0.45859869539E+02
 0.92430363050E+02 0.16349422763E+03 0.24565894716E+03 0.31327027654E+03 0.31327027654E+03
 0.28889513172E+03 0.22642671684E+03 0.15057455858E+03 0.85170846431E+02 0.42657830474E+02
 0.22528933412E+02 0.15463604212E+02 0.11888934726E+02 0.10527348830E+02 0.10013452038E+02
 0.92834056951E+01 0.88464461674E+01 0.92834056951E+01 0.10013452038E+02 0.10527348830E+02
 0.11888934726E+02 0.15463604212E+02 0.22528933412E+02 0.42657830474E+02 0.85170846431E+02
 0.15057455858E+03 0.22642671684E+03 0.28889513172E+03 0.24565894716E+03 0.22642671684E+03
 0.17718894120E+03 0.11763891083E+03 0.66888784223E+02 0.34816887191E+02 0.20380160884E+02
 0.15032720536E+02 0.11971299598E+02 0.10855283887E+02 0.10496836245E+02 0.10013452038E+02
 0.97186940392E+01 0.10013452038E+02 0.10496836245E+02 0.10855283887E+02 0.11971299598E+02
 0.15032720536E+02 0.20380160884E+02 0.34816887191E+02 0.66888784223E+02 0.11763891083E+03
 0.17718894120E+03 0.22642671684E+03 0.16349422763E+03 0.15057455858E+03 0.11763891083E+03
 0.78284788663E+02 0.45690347611E+02 0.26280459019E+02 0.18186989537E+02 0.14381105090E+02
 0.12039228940E+02 0.11164204490E+02 0.10855283887E+02 0.10527348830E+02 0.10343101998E+02
 0.10527348830E+02 0.10855283887E+02 0.11164204490E+02 0.12039228940E+02 0.14381105090E+02
 0.18186989537E+02 0.26280459019E+02 0.45690347611E+02 0.78284788663E+02 0.11763891083E+03
 0.15057455858E+03 0.92430363050E+02 0.85170846431E+02 0.66888784223E+02 0.45690347611E+02
 0.29165234243E+02 0.20276442572E+02 0.16411125339E+02 0.13806412136E+02 0.12441116733E+02
 0.12039228940E+02 0.11971299598E+02 0.11888934726E+02 0.11832349898E+02 0.11888934726E+02
 0.11971299598E+02 0.12039228940E+02 0.12441116733E+02 0.13806412136E+02 0.16411125339E+02
 0.20276442572E+02 0.29165234243E+02 0.45690347611E+02 0.66888784223E+02 0.85170846431E+02
 0.45859869539E+02 0.42657830474E+02 0.34816887191E+02 0.26280459019E+02 0.20276442572E+02
 0.17101924414E+02 0.14946254891E+02 0.13838521014E+02 0.13806412136E+02 0.14381105090E+02
 0.15032720536E+02 0.15463604212E+02 0.15605563159E+02 0.15463604212E+02 0.15032720536E+02
 0.14381105090E+02 0.13806412136E+02 0.13838521014E+02 0.14946254891E+02 0.17101924414E+02
 0.20276442572E+02 0.26280459019E+02 0.34816887191E+02 0.42657830474E+02 0.23449088303E+02
 0.22528933412E+02 0.20380160884E+02 0.18186989537E+02 0.16411125339E+02 0.14946254891E+02
 0.14361205521E+02 0.14946254891E+02 0.16411125339E+02 0.18186989537E+02 0.20380160884E+02
 0.22528933412E+02 0.23449088303E+02 0.22528933412E+02 0.20380160884E+02 0.18186989537E+02
 0.16411125339E+02 0.14946254891E+02 0.14361205521E+02 0.14946254891E+02 0.16411125339E+02
 0.18186989537E+02 0.20380160884E+02 0.22528933412E+02 0.15605563159E+02 0.15463604212E+02
 0.15032720536E+02 0.14381105090E+02 0.13806412136E+02 0.13838521014E+02 0.14946254891E+02
 0.17101924414E+02 0.20276442572E+02 0.26280459019E+02 0.34816887191E+02 0.42657830474E+02
 0.45859869539E+02 0.42657830474E+02 0.34816887191E+02 0.26280459019E+02 0.20276442572E+02
 0.17101924414E+02 0.14946254891E+02 0.13838521014E+02 0.13806412136E+02 0.14381105090E+02
 0.15032720536E+02 0.15463604212E+02 0.11832349898E+02 0.11888934726E+02 0.11971299598E+02
 0.12039228940E+02 0.12441116733E+02 0.13806412136E+02 0.16411125339E+02 0.20276442572E+02
 0.29165234243E+02 0.45690347611E+02 0.66888784223E+02 0.85170846431E+02 0.92430363050E+02
 0.85170846431E+02 0.66888784223E+02 0.45690347611E+02 0.29165234243E+02 0.20276442572E+02
 0.16411125339E+02 0.13806412136E+02 0.12441116733E+02 0.12039228940E+02 0.11971299598E+02
 0.11888934726E+02 0.10343101998E+02 0.10527348830E+02 0.10855283887E+02 0.11164204490E+02
 0.12039228940E+02 0.14381105090E+02 0.18186989537E+02 0.26280459019E+02 0.45690347611E+02
 0.78284788663E+02 0.11763891083E+03 0.15057455858E+03 0.16349422763E+03 0.15057455858E+03
 0.11763891083E+03 0.78284788663E+02 0.45690347611E+02 0.26280459019E+02 0.18186989537E+02
 0.14381105090E+02 0.12039228940E+02 0.11164204490E+02 0.10855283887E+02 0.10527348830E+02
 0.97186940392E+01 0.10013452038E+02 0.10496836245E+02 0.10855283887E+02 0.11971299598E+02
 0.15032720536E+02 0.20380160884E+02 0.34816887191E+02 0.66888784223E+02 0.11763891083E+03
 0.17718894120E+03 0.22642671684E+03 0.24565894716E+03 0.22642671684E+03 0.17718894120E+03
 0.11763891083E+03 0.66888784223E+02 0.34816887191E+02 0.20380160884E+02 0.15032720536E+02
 0.11971299598E+02 0.10855283887E+02 0.10496836245E+02 0.10013452038E+02 0.88464461674E+01
 0.92834056951E+01 0.10013452038E+02 0.10527348830E+02 0.11888934726E+02 0.15463604212E+02
 0.22528933412E+02 0.42657830474E+02 0.85170846431E+02 0.15057455858E+03 0.22642671684E+03
 0.28889513172E+03 0.31327027654E+03 0.28889513172E+03 0.22642671684E+03 0.15057455858E+03
 0.85170846431E+02 0.42657830474E+02 0.22528933412E+02 0.15463604212E+02 0.11888934726E+02
 0.10527348830E+02 0.10013452038E+02 0.92834056951E+01 0.83351509180E+01 0.88464461674E+01
 0.97186940392E+01 0.10343101998E+02 0.11832349898E+02 0.15605563159E+02 0.23449088303E+02
 0.45859869539E+02 0.92430363050E+02 0.16349422763E+03 0.24565894716E+03 0.31327027654E+03
 0.33964920133E+03 0.31327027654E+03 0.24565894716E+03 0.16349422763E+03 0.92430363050E+02
 0.45859869539E+02 0.23449088303E+02 0.15605563159E+02 0.11832349898E+02 0.10343101998E+02
 0.97186940392E+01 0.88464461674E+01 0.88464461674E+01 0.92834056951E+01 0.10013452038E+02
 0.10527348830E+02 0.11888934726E+02 0.15463604212E+02 0.22528933412E+02 0.42657830474E+02
 0.85170846431E+02 0.15057455858E+03 0.22642671684E+03 0.28889513172E+03 0.31327027654E+03
 0.28889513172E+03 0.22642671684E+03 0.15057455858E+03 0.85170846431E+02 0.42657830474E+02
 0.22528933412E+02 0.15463604212E+02 0.11888934726E+02 0.10527348830E+02 0.10013452038E+02
 0.92834056951E+01 0.97186940392E+01 0.10013452038E+02 0.10496836245E+02 0.10855283887E+02
 0.11971299598E+02 0.15032720536E+02 0.20380160884E+02 0.34816887191E+02 0.66888784223E+02
 0.11763891083E+03 0.17718894120E+03 0.22642671684E+03 0.24565894716E+03 0.22642671684E+03
 0.17718894120E+03 0.11763891083E+03 0.66888784223E+02 0.34816887191E+02 0.20380160884E+02
 0.15032720536E+02 0.11971299598E+02 0.10855283887E+02 0.10496836245E+02 0.10013452038E+02
 0.10343101998E+02 0.10527348830E+02 0.10855283887E+02 0.11164204490E+02 0.12039228940E+02
 0.14381105090E+02 0.18186989537E+02 0.26280459019E+02 0.45690347611E+02 0.78284788663E+02
 0.11763891083E+03 0.15057455858E+03 0.16349422763E+03 0.15057455858E+03 0.11763891083E+03
 0.78284788663E+02 0.45690347611E+02 0.26280459019E+02 0.18186989537E+02 0.14381105090E+02
 0.12039228940E+02 0.11164204490E+02 0.10855283887E+02 0.10527348830E+02 0.11832349898E+02
 0.11888934726E+02 0.11971299598E+02 0.12039228940E+02 0.12441116733E+02 0.13806412136E+02
 0.16411125339E+02 0.20276442572E+02 0.29165234243E+02 0.45690347611E+02 0.66888784223E+02
 0.85170846431E+02 0.92430363050E+02 0.85170846431E+02 0.66888784223E+02 0.45690347611E+02
 0.29165234243E+02 0.20276442572E+02 0.16411125339E+02 0.13806412136E+02 0.12441116733E+02
 0.12039228940E+02 0.11971299598E+02 0.11888934726E+02 0.15605563159E+02 0.15463604212E+02
 0.15032720536E+02 0.14381105090E+02 0.13806412136E+02 0.13838521014E+02 0.14946254891E+02
 0.17101924414E+02 0.20276442572E+02 0.26280459019E+02 0.34816887191E+02 0.42657830474E+02
 0.45859869539E+02 0.42657830474E+02 0.34816887191E+02 0.26280459019E+02 0.20276442572E+02
 0.17101924414E+02 0.14946254891E+02 0.13838521014E+02 0.13806412136E+02 0.14381105090E+02
 0.15032720536E+02 0.15463604212E+02 0.23449088303E+02 0.22528933412E+02 0.20380160884E+02
 0.18186989537E+02 0.16411125339E+02 0.14946254891E+02 0.14361205521E+02 0.14946254891E+02
 0.16411125339E+02 0.18186989537E+02 0.20380160884E+02 0.22528933412E+02 0.23449088303E+02
 0.22528933412E+02 0.20380160884E+02 0.18186989537E+02 0.16411125339E+02 0.14946254891E+02
 0.14361205521E+02 0.14946254891E+02 0.16411125339E+02 0.18186989537E+02 0.20380160884E+02
 0.22528933412E+02 0.45859869539E+02 0.42657830474E+02 0.34816887191E+02 0.26280459019E+02
 0.20276442572E+02 0.17101924414E+02 0.14946254891E+02 0.13838521014E+02 0.13806412136E+02
 0.14381105090E+02 0.15032720536E+02 0.15463604212E+02 0.15605563159E+02 0.15463604212E+02
 0.15032720536E+02 0.14381105090E+02 0.13806412136E+02 0.13838521014E+02 0.14946254891E+02
 0.17101924414E+02 0.20276442572E+02 0.26280459019E+02 0.34816887191E+02 0.42657830474E+02
 0.92430363050E+02 0.85170846431E+02 0.66888784223E+02 0.45690347611E+02 0.29165234243E+02
 0.20276442572E+02 0.16411125339E+02 0.13806412136E+02 0.12441116733E+02 0.12039228940E+02
 0.11971299598E+02 0.11888934726E+02 0.11832349898E+02 0.11888934726E+02 0.11971299598E+02
 0.12039228940E+02 0.12441116733E+02 0.13806412136E+02 0.16411125339E+02 0.20276442572E+02
 0.29165234243E+02 0.45690347611E+02 0.66888784223E+02 0.85170846431E+02 0.16349422763E+03
 0.15057455858E+03 0.11763891083E+03 0.78284788663E+02 0.45690347611E+02 0.26280459019E+02
 0.18186989537E+02 0.14381105090E+02 0.12039228940E+02 0.11164204490E+02 0.10855283887E+02
 0.10527348830E+02 0.10343101998E+02 0.10527348830E+02 0.10855283887E+02 0.11164204490E+02
 0.12039228940E+02 0.14381105090E+02 0.18186989537E+02 0.26280459019E+02 0.45690347611E+02
 0.78284788663E+02 0.11763891083E+03 0.15057455858E+03 0.24565894716E+03 0.22642671684E+03
 0.17718894120E+03 0.11763891083E+03 0.66888784223E+02 0.34816887191E+02 0.20380160884E+02
 0.15032720536E+02 0.11971299598E+02 0.10855283887E+02 0.10496836245E+02 0.10013452038E+02
 0.97186940392E+01 0.10013452038E+02 0.10496836245E+02 0.10855283887E+02 0.11971299598E+02
 0.15032720536E+02 0.20380160884E+02 0.34816887191E+02 0.66888784223E+02 0.11763891083E+03
 0.17718894120E+03 0.22642671684E+03 0.31327027654E+03 0.28889513172E+03 0.22642671684E+03
 0.15057455858E+03 0.85170846431E+02 0.42657830474E+02 0.22528933412E+02 0.15463604212E+02
 0.11888934726E+02 0.10527348830E+02 0.10013452038E+02 0.92834056951E+01 0.88464461674E+01
 0.92834056951E+01 0.10013452038E+02 0.10527348830E+02 0.11888934726E+02 0.15463604212E+02
 0.22528933412E+02 0.42657830474E+02 0.85170846431E+02 0.15057455858E+03 0.22642671684E+03
 0.28889513172E+03 0.31327027654E+03 0.28889513172E+03 0.22642671684E+03 0.15057455858E+03
 0.85170846431E+02 0.42657830474E+02 0.22528933412E+02 0.15463604212E+02 0.11888934726E+02
 0.10527348830E+02 0.10013452038E+02 0.92834056951E+01 0.88464461674E+01 0.92834056951E+01
 0.10013452038E+02 0.10527348830E+02 0.11888934726E+02 0.15463604212E+02 0.22528933412E+02
 0.42657830474E+02 0.85170846431E+02 0.15057455858E+03 0.22642671684E+03 0.28889513172E+03
 0.28889513172E+03 0.26636719849E+03 0.20864859813E+03 0.13864565924E+03 0.78503170366E+02
 0.39757695812E+02 0.21718237365E+02 0.15323234991E+02 0.11936409727E+02 0.10686185063E+02
 0.10263898165E+02 0.96556654026E+01 0.92834056951E+01 0.96556654026E+01 0.10263898165E+02
 0.10686185063E+02 0.11936409727E+02 0.15323234991E+02 0.21718237365E+02 0.39757695812E+02
 0.78503170366E+02 0.13864565924E+03 0.20864859813E+03 0.26636719849E+03 0.22642671684E+03
 0.20864859813E+03 0.16316863665E+03 0.10828524756E+03 0.61759495923E+02 0.32686867883E+02
 0.19827910766E+02 0.14901547589E+02 0.12003175527E+02 0.10967684304E+02 0.10666422540E+02
 0.10263898165E+02 0.10013452038E+02 0.10263898165E+02 0.10666422540E+02 0.10967684304E+02
 0.12003175527E+02 0.14901547589E+02 0.19827910766E+02 0.32686867883E+02 0.61759495923E+02
 0.10828524756E+03 0.16316863665E+03 0.20864859813E+03 0.15057455858E+03 0.13864565924E+03
 0.10828524756E+03 0.72153790577E+02 0.42472610402E+02 0.25059410017E+02 0.17878357250E+02
 0.14271709550E+02 0.12060575574E+02 0.11242329321E+02 0.10967684304E+02 0.10686185063E+02
 0.10527348830E+02 0.10686185063E+02 0.10967684304E+02 0.11242329321E+02 0.12060575574E+02
 0.14271709550E+02 0.17878357250E+02 0.25059410017E+02 0.42472610402E+02 0.72153790577E+02
 0.10828524756E+03 0.13864565924E+03 0.85170846431E+02 0.78503170366E+02 0.61759495923E+02
 0.42472610402E+02 0.27618288463E+02 0.19752239945E+02 0.16194730713E+02 0.13718822365E+02
 0.12435268746E+02 0.12060575574E+02 0.12003175527E+02 0.11936409727E+02 0.11888934726E+02
 0.11936409727E+02 0.12003175527E+02 0.12060575574E+02 0.12435268746E+02 0.13718822365E+02
 0.16194730713E+02 0.19752239945E+02 0.27618288463E+02 0.42472610402E+02 0.61759495923E+02
 0.78503170366E+02 0.42657830474E+02 0.39757695812E+02 0.32686867883E+02 0.25059410017E+02
 0.19752239945E+02 0.16851261936E+02 0.14788273285E+02 0.13742039877E+02 0.13718822365E+02
 0.14271709550E+02 0.14901547589E+02 0.15323234991E+02 0.15463604212E+02 0.15323234991E+02
 0.14901547589E+02 0.14271709550E+02 0.13718822365E+02 0.13742039877E+02 0.14788273285E+02
 0.16851261936E+02 0.19752239945E+02 0.25059410017E+02 0.32686867883E+02 0.39757695812E+02
 0.22528933412E+02 0.21718237365E+02 0.19827910766E+02 0.17878357250E+02 0.16194730713E+02
 0.14788273285E+02 0.14230240460E+02 0.14788273285E+02 0.16194730713E+02 0.17878357250E+02
 0.19827910766E+02 0.21718237365E+02 0.22528933412E+02 0.21718237365E+02 0.19827910766E+02
 0.17878357250E+02 0.16194730713E+02 0.14788273285E+02 0.14230240460E+02 0.14788273285E+02
 0.16194730713E+02 0.17878357250E+02 0.19827910766E+02 0.21718237365E+02 0.15463604212E+02
 0.15323234991E+02 0.14901547589E+02 0.14271709550E+02 0.13718822365E+02 0.13742039877E+02
 0.14788273285E+02 0.16851261936E+02 0.19752239945E+02 0.25059410017E+02 0.32686867883E+02
 0.39757695812E+02 0.42657830474E+02 0.39757695812E+02 0.32686867883E+02 0.25059410017E+02
 0.19752239945E+02 0.16851261936E+02 0.14788273285E+02 0.13742039877E+02 0.13718822365E+02
 0.14271709550E+02 0.14901547589E+02 0.15323234991E+02 0.11888934726E+02 0.11936409727E+02
 0.12003175527E+02 0.12060575574E+02 0.12435268746E+02 0.13718822365E+02 0.16194730713E+02
 0.19752239945E+02 0.27618288463E+02 0.42472610402E+02 0.61759495923E+02 0.78503170366E+02
 0.85170846431E+02 0.78503170366E+02 0.61759495923E+02 0.42472610402E+02 0.27618288463E+02
 0.19752239945E+02 0.16194730713E+02 0.13718822365E+02 0.12435268746E+02 0.12060575574E+02
 0.12003175527E+02 0.11936409727E+02 0.10527348830E+02 0.10686185063E+02 0.10967684304E+02
 0.11242329321E+02 0.12060575574E+02 0.14271709550E+02 0.17878357250E+02 0.25059410017E+02
 0.42472610402E+02 0.72153790577E+02 0.10828524756E+03 0.13864565924E+03 0.15057455858E+03
 0.13864565924E+03 0.10828524756E+03 0.72153790577E+02 0.42472610402E+02 0.25059410017E+02
 0.17878357250E+02 0.14271709550E+02 0.12060575574E+02 0.11242329321E+02 0.10967684304E+02
 0.10686185063E+02 0.10013452038E+02 0.10263898165E+02 0.10666422540E+02 0.10967684304E+02
 0.12003175527E+02 0.14901547589E+02 0.19827910766E+02 0.32686867883E+02 0.61759495923E+02
 0.10828524756E+03 0.16316863665E+03 0.20864859813E+03 0.22642671684E+03 0.20864859813E+03
 0.16316863665E+03 0.10828524756E+03 0.61759495923E+02 0.32686867883E+02 0.19827910766E+02
 0.14901547589E+02 0.12003175527E+02 0.10967684304E+02 0.10666422540E+02 0.10263898165E+02
 0.92834056951E+01 0.96556654026E+01 0.10263898165E+02 0.10686185063E+02 0.11936409727E+02
 0.15323234991E+02 0.21718237365E+02 0.39757695812E+02 0.78503170366E+02 0.13864565924E+03
 0.20864859813E+03 0.26636719849E+03 0.28889513172E+03 0.26636719849E+03 0.20864859813E+03
 0.13864565924E+03 0.78503170366E+02 0.39757695812E+02 0.21718237365E+02 0.15323234991E+02
 0.11936409727E+02 0.10686185063E+02 0.10263898165E+02 0.96556654026E+01 0.88464461674E+01
 0.92834056951E+01 0.10013452038E+02 0.10527348830E+02 0.11888934726E+02 0.15463604212E+02
 0.22528933412E+02 0.42657830474E+02 0.85170846431E+02 0.15057455858E+03 0.22642671684E+03
 0.28889513172E+03 0.31327027654E+03 0.28889513172E+03 0.22642671684E+03 0.15057455858E+03
 0.85170846431E+02 0.42657830474E+02 0.22528933412E+02 0.15463604212E+02 0.11888934726E+02
 0.10527348830E+02 0.10013452038E+02 0.92834056951E+01 0.92834056951E+01 0.96556654026E+01
 0.10263898165E+02 0.10686185063E+02 0.11936409727E+02 0.15323234991E+02 0.21718237365E+02
 0.39757695812E+02 0.78503170366E+02 0.13864565924E+03 0.20864859813E+03 0.26636719849E+03
 0.28889513172E+03 0.26636719849E+03 0.20864859813E+03 0.13864565924E+03 0.78503170366E+02
 0.39757695812E+02 0.21718237365E+02 0.15323234991E+02 0.11936409727E+02 0.10686185063E+02
 0.10263898165E+02 0.96556654026E+01 0.10013452038E+02 0.10263898165E+02 0.10666422540E+02
 0.10967684304E+02 0.12003175527E+02 0.14901547589E+02 0.19827910766E+02 0.32686867883E+02
 0.61759495923E+02 0.10828524756E+03 0.16316863665E+03 0.20864859813E+03 0.22642671684E+03
 0.20864859813E+03 0.16316863665E+03 0.10828524756E+03 0.61759495923E+02 0.32686867883E+02
 0.19827910766E+02 0.14901547589E+02 0.12003175527E+02 0.10967684304E+02 0.10666422540E+02
 0.10263898165E+02 0.10527348830E+02 0.10686185063E+02 0.10967684304E+02 0.11242329321E+02
 0.12060575574E+02 0.14271709550E+02 0.17878357250E+02 0.25059410017E+02 0.42472610402E+02
 0.72153790577E+02 0.10828524756E+03 0.13864565924E+03 0.15057455858E+03 0.13864565924E+03
 0.10828524756E+03 0.72153790577E+02 0.42472610402E+02 0.25059410017E+02 0.17878357250E+02
 0.14271709550E+02 0.12060575574E+02 0.11242329321E+02 0.10967684304E+02 0.10686185063E+02
 0.11888934726E+02 0.11936409727E+02 0.12003175527E+02 0.12060575574E+02 0.12435268746E+02
 0.13718822365E+02 0.16194730713E+02 0.19752239945E+02 0.27618288463E+02 0.42472610402E+02
 0.61759495923E+02 0.78503170366E+02 0.85170846431E+02 0.78503170366E+02 0.61759495923E+02
 0.42472610402E+02 0.27618288463E+02 0.19752239945E+02 0.16194730713E+02 0.13718822365E+02
 0.12435268746E+02 0.12060575574E+02 0.12003175527E+02 0.11936409727E+02 0.15463604212E+02
 0.15323234991E+02 0.14901547589E+02 0.14271709550E+02 0.13718822365E+02 0.13742039877E+02
 0.14788273285E+02 0.16851261936E+02 0.19752239945E+02 0.25059410017E+02 0.32686867883E+02
 0.39757695812E+02 0.42657830474E+02 0.39757695812E+02 0.32686867883E+02 0.25059410017E+02
 0.19752239945E+02 0.16851261936E+02 0.14788273285E+02 0.13742039877E+02 0.13718822365E+02
 0.14271709550E+02 0.14901547589E+02 0.15323234991E+02 0.22528933412E+02 0.21718237365E+02
 0.19827910766E+02 0.17878357250E+02 0.16194730713E+02 0.14788273285E+02 0.14230240460E+02
 0.14788273285E+02 0.16194730713E+02 0.17878357250E+02 0.19827910766E+02 0.21718237365E+02
 0.22528933412E+02 0.21718237365E+02 0.19827910766E+02 0.17878357250E+02 0.16194730713E+02
 0.14788273285E+02 0.14230240460E+02 0.14788273285E+02 0.16194730713E+02 0.17878357250E+02
 0.19827910766E+02 0.21718237365E+02 0.42657830474E+02 0.39757695812E+02 0.32686867883E+02
 0.25059410017E+02 0.19752239945E+02 0.16851261936E+02 0.14788273285E+02 0.13742039877E+02
 0.13718822365E+02 0.14271709550E+02 0.14901547589E+02 0.15323234991E+02 0.15463604212E+02
 0.15323234991E+02 0.14901547589E+02 0.14271709550E+02 0.13718822365E+02 0.13742039877E+02
 0.14788273285E+02 0.16851261936E+02 0.19752239945E+02 0.25059410017E+02 0.32686867883E+02
 0.39757695812E+02 0.85170846431E+02 0.78503170366E+02 0.61759495923E+02 0.42472610402E+02
 0.27618288463E+02 0.19752239945E+02 0.16194730713E+02 0.13718822365E+02 0.12435268746E+02
 0.12060575574E+02 0.12003175527E+02 0.11936409727E+02 0.11888934726E+02 0.11936409727E+02
 0.12003175527E+02 0.12060575574E+02 0.12435268746E+02 0.13718822365E+02 0.16194730713E+02
 0.19752239945E+02 0.27618288463E+02 0.42472610402E+02 0.61759495923E+02 0.78503170366E+02
 0.15057455858E+03 0.13864565924E+03 0.10828524756E+03 0.72153790577E+02 0.42472610402E+02
 0.25059410017E+02 0.17878357250E+02 0.14271709550E+02 0.12060575574E+02 0.11242329321E+02
 0.10967684304E+02 0.10686185063E+02 0.10527348830E+02 0.10686185063E+02 0.10967684304E+02
 0.11242329321E+02 0.12060575574E+02 0.14271709550E+02 0.17878357250E+02 0.25059410017E+02
 0.42472610402E+02 0.72153790577E+02 0.10828524756E+03 0.13864565924E+03 0.22642671684E+03
 0.20864859813E+03 0.16316863665E+03 0.10828524756E+03 0.61759495923E+02 0.32686867883E+02
 0.19827910766E+02 0.14901547589E+02 0.12003175527E+02 0.10967684304E+02 0.10666422540E+02
 0.10263898165E+02 0.10013452038E+02 0.10263898165E+02 0.10666422540E+02 0.10967684304E+02
 0.12003175527E+02 0.14901547589E+02 0.19827910766E+02 0.32686867883E+02 0.61759495923E+02
 0.10828524756E+03 0.16316863665E+03 0.20864859813E+03 0.28889513172E+03 0.26636719849E+03
 0.20864859813E+03 0.13864565924E+03 0.78503170366E+02 0.39757695812E+02 0.21718237365E+02
 0.15323234991E+02 0.11936409727E+02 0.10686185063E+02 0.10263898165E+02 0.96556654026E+01
 0.92834056951E+01 0.96556654026E+01 0.10263898165E+02 0.10686185063E+02 0.11936409727E+02
 0.15323234991E+02 0.21718237365E+02 0.39757695812E+02 0.78503170366E+02 0.13864565924E+03
 0.20864859813E+03 0.26636719849E+03 0.24565894716E+03 0.22642671684E+03 0.17718894120E+03
 0.11763891083E+03 0.66888784223E+02 0.34816887191E+02 0.20380160884E+02 0.15032720536E+02
 0.11971299598E+02 0.10855283887E+02 0.10496836245E+02 0.10013452038E+02 0.97186940392E+01
 0.10013452038E+02 0.10496836245E+02 0.10855283887E+02 0.11971299598E+02 0.15032720536E+02
 0.20380160884E+02 0.34816887191E+02 0.66888784223E+02 0.11763891083E+03 0.17718894120E+03
 0.22642671684E+03 0.22642671684E+03 0.20864859813E+03 0.16316863665E+03 0.10828524756E+03
 0.61759495923E+02 0.32686867883E+02 0.19827910766E+02 0.14901547589E+02 0.12003175527E+02
 0.10967684304E+02 0.10666422540E+02 0.10263898165E+02 0.10013452038E+02 0.10263898165E+02
 0.10666422540E+02 0.10967684304E+02 0.12003175527E+02 0.14901547589E+02 0.19827910766E+02
 0.32686867883E+02 0.61759495923E+02 0.10828524756E+03 0.16316863665E+03 0.20864859813E+03
 0.17718894120E+03 0.16316863665E+03 0.12741115177E+03 0.84614452010E+02 0.49001472464E+02
 0.27565678612E+02 0.18531581704E+02 0.14516684408E+02 0.12046759268E+02 0.11172748607E+02
 0.10939124574E+02 0.10666422540E+02 0.10496836245E+02 0.10666422540E+02 0.10939124574E+02
 0.11172748607E+02 0.12046759268E+02 0.14516684408E+02 0.18531581704E+02 0.27565678612E+02
 0.49001472464E+02 0.84614452010E+02 0.12741115177E+03 0.16316863665E+03 0.11763891083E+03
 0.10828524756E+03 0.84614452010E+02 0.56830358965E+02 0.34622905446E+02 0.22193176802E+02
 0.17090252898E+02 0.13957673076E+02 0.12091455339E+02 0.11399481844E+02 0.11172748607E+02
 0.10967684304E+02 0.10855283887E+02 0.10967684304E+02 0.11172748607E+02 0.11399481844E+02
 0.12091455339E+02 0.13957673076E+02 0.17090252898E+02 0.22193176802E+02 0.34622905446E+02
 0.56830358965E+02 0.84614452010E+02 0.10828524756E+03 0.66888784223E+02 0.61759495923E+02
 0.49001472464E+02 0.34622905446E+02 0.23967015499E+02 0.18523720890E+02 0.15599471265E+02
 0.13473826688E+02 0.12402813956E+02 0.12091455339E+02 0.12046759268E+02 0.12003175527E+02
 0.11971299598E+02 0.12003175527E+02 0.12046759268E+02 0.12091455339E+02 0.12402813956E+02
 0.13473826688E+02 0.15599471265E+02 0.18523720890E+02 0.23967015499E+02 0.34622905446E+02
 0.49001472464E+02 0.61759495923E+02 0.34816887191E+02 0.32686867883E+02 0.27565678612E+02
 0.22193176802E+02 0.18523720890E+02 0.16171520644E+02 0.14369878070E+02 0.13483193493E+02
 0.13473826688E+02 0.13957673076E+02 0.14516684408E+02 0.14901547589E+02 0.15032720536E+02
 0.14901547589E+02 0.14516684408E+02 0.13957673076E+02 0.13473826688E+02 0.13483193493E+02
 0.14369878070E+02 0.16171520644E+02 0.18523720890E+02 0.22193176802E+02 0.27565678612E+02
 0.32686867883E+02 0.20380160884E+02 0.19827910766E+02 0.18531581704E+02 0.17090252898E+02
 0.15599471265E+02 0.14369878070E+02 0.13890575888E+02 0.14369878070E+02 0.15599471265E+02
 0.17090252898E+02 0.18531581704E+02 0.19827910766E+02 0.20380160884E+02 0.19827910766E+02
 0.18531581704E+02 0.17090252898E+02 0.15599471265E+02 0.14369878070E+02 0.13890575888E+02
 0.14369878070E+02 0.15599471265E+02 0.17090252898E+02 0.18531581704E+02 0.19827910766E+02
 0.15032720536E+02 0.14901547589E+02 0.14516684408E+02 0.13957673076E+02 0.13473826688E+02
 0.13483193493E+02 0.14369878070E+02 0.16171520644E+02 0.18523720890E+02 0.22193176802E+02
 0.27565678612E+02 0.32686867883E+02 0.34816887191E+02 0.32686867883E+02 0.27565678612E+02
 0.22193176802E+02 0.18523720890E+02 0.16171520644E+02 0.14369878070E+02 0.13483193493E+02
 0.13473826688E+02 0.13957673076E+02 0.14516684408E+02 0.14901547589E+02 0.11971299598E+02
 0.12003175527E+02 0.12046759268E+02 0.12091455339E+02 0.12402813956E+02 0.13473826688E+02
 0.15599471265E+02 0.18523720890E+02 0.23967015499E+02 0.34622905446E+02 0.49001472464E+02
 0.61759495923E+02 0.66888784223E+02 0.61759495923E+02 0.49001472464E+02 0.34622905446E+02
 0.23967015499E+02 0.18523720890E+02 0.15599471265E+02 0.13473826688E+02 0.12402813956E+02
 0.12091455339E+02 0.12046759268E+02 0.12003175527E+02 0.10855283887E+02 0.10967684304E+02
 0.11172748607E+02 0.11399481844E+02 0.12091455339E+02 0.13957673076E+02 0.17090252898E+02
 0.22193176802E+02 0.34622905446E+02 0.56830358965E+02 0.84614452010E+02 0.10828524756E+03
 0.11763891083E+03 0.10828524756E+03 0.84614452010E+02 0.56830358965E+02 0.34622905446E+02
 0.22193176802E+02 0.17090252898E+02 0.13957673076E+02 0.12091455339E+02 0.11399481844E+02
 0.11172748607E+02 0.10967684304E+02 0.10496836245E+02 0.10666422540E+02 0.10939124574E+02
 0.11172748607E+02 0.12046759268E+02 0.14516684408E+02 0.18531581704E+02 0.27565678612E+02
 0.49001472464E+02 0.84614452010E+02 0.12741115177E+03 0.16316863665E+03 0.17718894120E+03
 0.16316863665E+03 0.12741115177E+03 0.84614452010E+02 0.49001472464E+02 0.27565678612E+02
 0.18531581704E+02 0.14516684408E+02 0.12046759268E+02 0.11172748607E+02 0.10939124574E+02
 0.10666422540E+02 0.10013452038E+02 0.10263898165E+02 0.10666422540E+02 0.10967684304E+02
 0.12003175527E+02 0.14901547589E+02 0.19827910766E+02 0.32686867883E+02 0.61759495923E+02
 0.10828524756E+03 0.16316863665E+03 0.20864859813E+03 0.22642671684E+03 0.20864859813E+03
 0.16316863665E+03 0.10828524756E+03 0.61759495923E+02 0.32686867883E+02 0.19827910766E+02
 0.14901547589E+02 0.12003175527E+02 0.10967684304E+02 0.10666422540E+02 0.10263898165E+02
 0.97186940392E+01 0.10013452038E+02 0.10496836245E+02 0.10855283887E+02 0.11971299598E+02
 0.15032720536E+02 0.20380160884E+02 0.34816887191E+02 0.66888784223E+02 0.11763891083E+03
 0.17718894120E+03 0.22642671684E+03 0.24565894716E+03 0.22642671684E+03 0.17718894120E+03
 0.11763891083E+03 0.66888784223E+02 0.34816887191E+02 0.20380160884E+02 0.15032720536E+02
 0.11971299598E+02 0.10855283887E+02 0.10496836245E+02 0.10013452038E+02 0.10013452038E+02
 0.10263898165E+02 0.10666422540E+02 0.10967684304E+02 0.12003175527E+02 0.14901547589E+02
 0.19827910766E+02 0.32686867883E+02 0.61759495923E+02 0.10828524756E+03 0.16316863665E+03
 0.20864859813E+03 0.22642671684E+03 0.20864859813E+03 0.16316863665E+03 0.10828524756E+03
 0.61759495923E+02 0.32686867883E+02 0.19827910766E+02 0.14901547589E+02 0.12003175527E+02
 0.10967684304E+02 0.10666422540E+02 0.10263898165E+02 0.10496836245E+02 0.10666422540E+02
 0.10939124574E+02 0.11172748607E+02 0.12046759268E+02 0.14516684408E+02 0.18531581704E+02
 0.27565678612E+02 0.49001472464E+02 0.84614452010E+02 0.12741115177E+03 0.16316863665E+03
 0.17718894120E+03 0.16316863665E+03 0.12741115177E+03 0.84614452010E+02 0.49001472464E+02
 0.27565678612E+02 0.18531581704E+02 0.14516684408E+02 0.12046759268E+02 0.11172748607E+02
 0.10939124574E+02 0.10666422540E+02 0.10855283887E+02 0.10967684304E+02 0.11172748607E+02
 0.11399481844E+02 0.12091455339E+02 0.13957673076E+02 0.17090252898E+02 0.22193176802E+02
 0.34622905446E+02 0.56830358965E+02 0.84614452010E+02 0.10828524756E+03 0.11763891083E+03
 0.10828524756E+03 0.84614452010E+02 0.56830358965E+02 0.34622905446E+02 0.22193176802E+02
 0.17090252898E+02 0.13957673076E+02 0.12091455339E+02 0.11399481844E+02 0.11172748607E+02
 0.10967684304E+02 0.11971299598E+02 0.12003175527E+02 0.12046759268E+02 0.12091455339E+02
 0.12402813956E+02 0.13473826688E+02 0.15599471265E+02 0.18523720890E+02 0.23967015499E+02
 0.34622905446E+02 0.49001472464E+02 0.61759495923E+02 0.66888784223E+02 0.61759495923E+02
 0.49001472464E+02 0.34622905446E+02 0.23967015499E+02 0.18523720890E+02 0.15599471265E+02
 0.13473826688E+02 0.12402813956E+02 0.12091455339E+02 0.12046759268E+02 0.12003175527E+02
 0.15032720536E+02 0.14901547589E+02 0.14516684408E+02 0.13957673076E+02 0.13473826688E+02
 0.13483193493E+02 0.14369878070E+02 0.16171520644E+02 0.18523720890E+02 0.22193176802E+02
 0.27565678612E+02 0.32686867883E+02 0.34816887191E+02 0.32686867883E+02 0.27565678612E+02
 0.22193176802E+02 0.18523720890E+02 0.16171520644E+02 0.14369878070E+02 0.13483193493E+02
 0.13473826688E+02 0.13957673076E+02 0.14516684408E+02 0.14901547589E+02 0.20380160884E+02
 0.19827910766E+02 0.18531581704E+02 0.17090252898E+02 0.15599471265E+02 0.14369878070E+02
 0.13890575888E+02 0.14369878070E+02 0.15599471265E+02 0.17090252898E+02 0.18531581704E+02
 0.19827910766E+02 0.20380160884E+02 0.19827910766E+02 0.18531581704E+02 0.17090252898E+02
 0.15599471265E+02 0.14369878070E+02 0.13890575888E+02 0.14369878070E+02 0.15599471265E+02
 0.17090252898E+02 0.18531581704E+02 0.19827910766E+02 0.34816887191E+02 0.32686867883E+02
 0.27565678612E+02 0.22193176802E+02 0.18523720890E+02 0.16171520644E+02 0.14369878070E+02
 0.13483193493E+02 0.13473826688E+02 0.13957673076E+02 0.14516684408E+02 0.14901547589E+02
 0.15032720536E+02 0.14901547589E+02 0.14516684408E+02 0.13957673076E+02 0.13473826688E+02