   4   4   0   0
  0.1022208E+02  0.3445083E-09  0.3445083E-09  0.3445083E-09  0.5000000E-15
  1.000000000000000E-004
  CAR 
 unknown system                          
     38.36474609     -4.04050134  301      6.59862517      1.00000000
     -4.041  0.0000E+00  0.0000E+00
     -3.899  0.0000E+00  0.0000E+00
     -3.758 -0.2621E-32 -0.3705E-33
     -3.616 -0.2724E-27 -0.3851E-28
     -3.475 -0.1034E-22 -0.1462E-23
     -3.334 -0.1432E-18 -0.2025E-19
     -3.192 -0.7027E-15 -0.9935E-16
     -3.051 -0.1267E-11 -0.1793E-12
     -2.910 -0.8240E-09 -0.1166E-09
     -2.768 -0.1900E-06 -0.2697E-07
     -2.627 -0.1515E-04 -0.2169E-05
     -2.486 -0.3930E-03 -0.5772E-04
     -2.344 -0.2625E-02 -0.4288E-03
     -2.203  0.3813E-02  0.1102E-03
     -2.062  0.4567E-01  0.6566E-02
     -1.920  0.5506E-01  0.1435E-01
     -1.779 -0.3379E-02  0.1387E-01
     -1.638  0.2497E-01  0.1740E-01
     -1.496  0.2832E+00  0.5744E-01
     -1.355  0.3301E+00  0.1041E+00
     -1.213  0.3303E-01  0.1088E+00
     -1.072  0.1180E+00  0.1255E+00
     -0.931  0.6693E+00  0.2201E+00
     -0.789  0.5559E+00  0.2986E+00
     -0.648  0.5809E-01  0.3068E+00
     -0.507  0.2528E+00  0.3426E+00
     -0.365  0.4867E+00  0.4114E+00
     -0.224  0.1534E+00  0.4331E+00
     -0.083  0.7583E-01  0.4438E+00
      0.059  0.3362E+00  0.4913E+00
      0.200  0.1794E+00  0.5167E+00
      0.341  0.1896E+00  0.5435E+00
      0.483  0.1191E+01  0.7118E+00
      0.624  0.1233E+01  0.8861E+00
      0.765  0.9310E+00  0.1018E+01
      0.907  0.1445E+01  0.1222E+01
      1.048  0.6121E+00  0.1308E+01
      1.189 -0.6672E-01  0.1299E+01
      1.331 -0.1415E+00  0.1279E+01
      1.472  0.1307E+00  0.1297E+01
      1.614  0.1820E+01  0.1555E+01
      1.755  0.2908E+01  0.1966E+01
      1.896  0.2015E+01  0.2251E+01
      2.038  0.2512E+01  0.2606E+01
      2.179  0.4552E+01  0.3249E+01
      2.320  0.4466E+01  0.3880E+01
      2.462  0.4478E+01  0.4513E+01
      2.603  0.4828E+01  0.5196E+01
      2.744  0.3018E+01  0.5622E+01
      2.886  0.5255E+01  0.6365E+01
      3.027  0.8909E+01  0.7624E+01
      3.168  0.8261E+01  0.8792E+01
      3.310  0.3333E+01  0.9263E+01
      3.451  0.4604E+01  0.9914E+01
      3.592  0.8334E+01  0.1109E+02
      3.734  0.5974E+01  0.1194E+02
      3.875  0.2866E+01  0.1234E+02
      4.016  0.3192E+01  0.1279E+02
      4.158  0.6498E+01  0.1371E+02
      4.299  0.7620E+01  0.1479E+02
      4.441  0.4548E+01  0.1543E+02
      4.582  0.5170E+01  0.1616E+02
      4.723  0.1069E+02  0.1767E+02
      4.865  0.1069E+02  0.1918E+02
      5.006  0.7952E+01  0.2031E+02
      5.147  0.7172E+01  0.2132E+02
      5.289  0.7961E+01  0.2245E+02
      5.430  0.7680E+01  0.2353E+02
      5.571  0.6426E+01  0.2444E+02
      5.713  0.6238E+01  0.2532E+02
      5.854  0.7247E+01  0.2635E+02
      5.995  0.8417E+01  0.2754E+02
      6.137  0.8301E+01  0.2871E+02
      6.278  0.6347E+01  0.2961E+02
      6.419  0.4367E+01  0.3022E+02
      6.561  0.9232E+01  0.3153E+02
      6.702  0.1196E+02  0.3322E+02
      6.844  0.6453E+01  0.3413E+02
      6.985  0.2757E+01  0.3452E+02
      7.126  0.5369E+01  0.3528E+02
      7.268  0.8777E+01  0.3652E+02
      7.409  0.1087E+02  0.3806E+02
      7.550  0.1252E+02  0.3983E+02
      7.692  0.7915E+01  0.4095E+02
      7.833  0.4484E+01  0.4158E+02
      7.974  0.4272E+01  0.4218E+02
      8.116  0.3327E+01  0.4265E+02
      8.257  0.1902E+01  0.4292E+02
      8.398  0.3953E+00  0.4298E+02
      8.540 -0.1158E+00  0.4296E+02
      8.681 -0.1062E+00  0.4295E+02
      8.822  0.2761E+00  0.4299E+02
      8.964  0.1326E+01  0.4317E+02
      9.105  0.9771E+00  0.4331E+02
      9.246  0.4877E+00  0.4338E+02
      9.388  0.2740E+01  0.4377E+02
      9.529  0.3679E+01  0.4429E+02
      9.671  0.1509E+01  0.4450E+02
      9.812 -0.3814E-01  0.4450E+02
      9.953  0.4519E+00  0.4456E+02
     10.095  0.1655E+01  0.4479E+02
     10.236  0.1001E+01  0.4494E+02
     10.377  0.4477E-02  0.4494E+02
     10.519 -0.1135E+00  0.4492E+02
     10.660  0.1720E-01  0.4492E+02
     10.801  0.8981E+00  0.4505E+02
     10.943  0.1578E+01  0.4527E+02
     11.084  0.1574E+01  0.4549E+02
     11.225  0.1260E+01  0.4567E+02
     11.367  0.2059E+00  0.4570E+02
     11.508  0.1537E+00  0.4572E+02
     11.649  0.7199E+00  0.4583E+02
     11.791  0.8282E+00  0.4594E+02
     11.932  0.6840E+00  0.4604E+02
     12.073  0.1162E+00  0.4606E+02
     12.215  0.1092E+01  0.4621E+02
     12.356  0.3875E+01  0.4676E+02
     12.498  0.3160E+01  0.4720E+02
     12.639  0.4003E+00  0.4726E+02
     12.780 -0.2109E+00  0.4723E+02
     12.922  0.5521E-01  0.4724E+02
     13.063  0.6203E+00  0.4733E+02
     13.204  0.6336E+00  0.4742E+02
     13.346  0.9827E-01  0.4743E+02
     13.487 -0.3546E-01  0.4743E+02
     13.628 -0.7108E-02  0.4742E+02
     13.770 -0.3327E-03  0.4742E+02
     13.911 -0.2071E-04  0.4742E+02
     14.052 -0.9595E-03  0.4742E+02
     14.194 -0.1879E-01  0.4742E+02
     14.335 -0.8683E-01  0.4741E+02
     14.476  0.2403E+00  0.4744E+02
     14.618  0.1586E+01  0.4767E+02
     14.759  0.1883E+01  0.4793E+02
     14.901  0.5691E+00  0.4801E+02
     15.042 -0.7165E-01  0.4800E+02
     15.183 -0.1170E+00  0.4799E+02
     15.325  0.9181E-01  0.4800E+02
     15.466  0.1220E+01  0.4817E+02
     15.607  0.2710E+01  0.4856E+02
     15.749  0.3404E+01  0.4904E+02
     15.890  0.3410E+01  0.4952E+02
     16.031  0.2571E+01  0.4988E+02
     16.173  0.4555E+00  0.4995E+02
     16.314 -0.1514E+00  0.4993E+02
     16.455 -0.3487E-01  0.4992E+02
     16.597 -0.5087E-02  0.4992E+02
     16.738 -0.2139E-01  0.4992E+02
     16.879  0.3302E-01  0.4992E+02
     17.021  0.3524E+00  0.4997E+02
     17.162  0.3186E+00  0.5002E+02
     17.303  0.2507E+00  0.5005E+02
     17.445  0.2401E+01  0.5039E+02
     17.586  0.3481E+01  0.5088E+02
     17.728  0.1346E+01  0.5107E+02
     17.869  0.1072E+01  0.5122E+02
     18.010  0.1043E+01  0.5137E+02
     18.152  0.1268E+00  0.5139E+02
     18.293  0.1253E+00  0.5141E+02
     18.434  0.1142E+01  0.5157E+02
     18.576  0.1423E+01  0.5177E+02
     18.717  0.2251E+01  0.5209E+02
     18.858  0.2796E+01  0.5248E+02
     19.000  0.8726E+00  0.5261E+02
     19.141  0.3023E-01  0.5261E+02
     19.282  0.5444E+00  0.5269E+02
     19.424  0.7899E+00  0.5280E+02
     19.565  0.1424E+01  0.5300E+02
     19.706  0.1997E+01  0.5328E+02
     19.848  0.1576E+01  0.5351E+02
     19.989  0.3225E+00  0.5355E+02
     20.130 -0.6263E-01  0.5354E+02
     20.272  0.1464E+01  0.5375E+02
     20.413  0.3347E+01  0.5422E+02
     20.555  0.3277E+01  0.5469E+02
     20.696  0.2166E+01  0.5499E+02
     20.837  0.6894E+00  0.5509E+02
     20.979 -0.2472E-01  0.5509E+02
     21.120  0.8951E+00  0.5521E+02
     21.261  0.2276E+01  0.5553E+02
     21.403  0.1528E+01  0.5575E+02
     21.544 -0.9787E-02  0.5575E+02
     21.685  0.9219E-01  0.5576E+02
     21.827  0.2682E+01  0.5614E+02
     21.968  0.4584E+01  0.5679E+02
     22.109  0.2285E+01  0.5711E+02
     22.251  0.5066E-01  0.5712E+02
     22.392 -0.3454E+00  0.5707E+02
     22.533  0.4445E+00  0.5713E+02
     22.675  0.3750E+01  0.5766E+02
     22.816  0.5404E+01  0.5843E+02
     22.958  0.3390E+01  0.5891E+02
     23.099  0.1819E+01  0.5916E+02
     23.240  0.9522E+00  0.5930E+02
     23.382  0.1523E+00  0.5932E+02
     23.523 -0.1946E+00  0.5929E+02
     23.664  0.4753E-01  0.5930E+02
     23.806  0.2267E+01  0.5962E+02
     23.947  0.4463E+01  0.6025E+02
     24.088  0.3388E+01  0.6073E+02
     24.230  0.1850E+01  0.6099E+02
     24.371  0.1384E+01  0.6119E+02
     24.512  0.3570E+00  0.6124E+02
     24.654 -0.2213E+00  0.6121E+02
     24.795  0.1029E+01  0.6135E+02
     24.936  0.3538E+01  0.6185E+02
     25.078  0.2433E+01  0.6219E+02
     25.219  0.8320E-01  0.6221E+02
     25.360 -0.3876E+00  0.6215E+02
     25.502  0.7454E+00  0.6226E+02
     25.643  0.4488E+01  0.6289E+02
     25.785  0.4337E+01  0.6350E+02
     25.926  0.6370E+00  0.6359E+02
     26.067 -0.2035E-02  0.6359E+02
     26.209  0.1188E+01  0.6376E+02
     26.350  0.1333E+01  0.6395E+02
     26.491  0.1629E+01  0.6418E+02
     26.633  0.2963E+01  0.6460E+02
     26.774  0.2013E+01  0.6488E+02
     26.915  0.6690E+00  0.6498E+02
     27.057  0.1343E+01  0.6517E+02
     27.198  0.9281E+00  0.6530E+02
     27.339 -0.1859E-01  0.6530E+02
     27.481 -0.1137E+00  0.6528E+02
     27.622  0.6526E+00  0.6537E+02
     27.763  0.2178E+01  0.6568E+02
     27.905  0.3378E+01  0.6616E+02
     28.046  0.2899E+01  0.6657E+02
     28.187  0.1509E+01  0.6678E+02
     28.329  0.2560E+00  0.6682E+02
     28.470  0.1518E+01  0.6703E+02
     28.612  0.3741E+01  0.6756E+02
     28.753  0.1776E+01  0.6781E+02
     28.894 -0.5149E-01  0.6781E+02
     29.036  0.5010E+00  0.6788E+02
     29.177  0.1494E+01  0.6809E+02
     29.318  0.1386E+01  0.6828E+02
     29.460  0.5849E+00  0.6837E+02
     29.601  0.1176E+01  0.6853E+02
     29.742  0.2682E+01  0.6891E+02
     29.884  0.3297E+01  0.6938E+02
     30.025  0.2408E+01  0.6972E+02
     30.166  0.6068E+00  0.6980E+02
     30.308  0.6607E+00  0.6990E+02
     30.449  0.1971E+01  0.7018E+02
     30.590  0.1326E+01  0.7036E+02
     30.732  0.4730E+00  0.7043E+02
     30.873  0.1649E+01  0.7066E+02
     31.015  0.2016E+01  0.7095E+02
     31.156  0.2491E+01  0.7130E+02
     31.297  0.3198E+01  0.7175E+02
     31.439  0.2738E+01  0.7214E+02
     31.580  0.2028E+01  0.7243E+02
     31.721  0.1791E+01  0.7268E+02
     31.863  0.2293E+01  0.7300E+02
     32.004  0.1297E+01  0.7319E+02
     32.145 -0.7847E-01  0.7317E+02
     32.287  0.9951E+00  0.7332E+02
     32.428  0.4158E+01  0.7390E+02
     32.569  0.3132E+01  0.7435E+02
     32.711  0.2486E+00  0.7438E+02
     32.852 -0.1898E+00  0.7435E+02
     32.993 -0.8501E-01  0.7434E+02
     33.135  0.6740E-01  0.7435E+02
     33.276  0.6840E+00  0.7445E+02
     33.417  0.2339E+01  0.7478E+02
     33.559  0.5708E+01  0.7559E+02
     33.700  0.6675E+01  0.7653E+02
     33.842  0.4248E+01  0.7713E+02
     33.983  0.1371E+01  0.7732E+02
     34.124  0.6676E+00  0.7742E+02
     34.266  0.4245E+00  0.7748E+02
     34.407  0.6636E+00  0.7757E+02
     34.548  0.3179E+00  0.7762E+02
     34.690  0.4104E+00  0.7767E+02
     34.831  0.1990E+01  0.7796E+02
     34.972  0.2625E+01  0.7833E+02
     35.114  0.1477E+01  0.7854E+02
     35.255  0.1024E+01  0.7868E+02
     35.396  0.1422E+01  0.7888E+02
     35.538  0.4948E+00  0.7895E+02
     35.679 -0.1353E+00  0.7893E+02
     35.820  0.5249E+00  0.7901E+02
     35.962  0.1850E+01  0.7927E+02
     36.103  0.1743E+01  0.7951E+02
     36.244  0.9828E+00  0.7965E+02
     36.386  0.1383E+01  0.7985E+02
     36.527  0.1054E+01  0.8000E+02
     36.669  0.8555E-01  0.8001E+02
     36.810 -0.6323E-01  0.8000E+02
     36.951 -0.9435E-02  0.8000E+02
     37.093 -0.3637E-03  0.8000E+02
     37.234 -0.4560E-05  0.8000E+02
     37.375 -0.1977E-07  0.8000E+02
     37.517 -0.3042E-10  0.8000E+02
     37.658 -0.1689E-13  0.8000E+02
     37.799  0.0000E+00  0.8000E+02
     37.941  0.0000E+00  0.8000E+02
     38.082  0.0000E+00  0.8000E+02
     38.223  0.0000E+00  0.8000E+02
     38.365  0.0000E+00  0.8000E+02
