    4    4    1    1
  0.1022208E+02  0.3445083E-09  0.3445083E-09  0.3445083E-09  0.5000000E-15
  1.000000000000000E-004
  CAR 
 unknown system                          
     32     10     40
 
  0.0000000E+00  0.0000000E+00  0.0000000E+00  0.8000000E-02
    1       -2.040501   1.000000
    2        1.846633   1.000000
    3        1.846633   1.000000
    4        1.846633   1.000000
    5        2.506121   1.000000
    6        2.506121   1.000000
    7        2.506121   1.000000
    8        5.018905   1.000000
    9        5.018905   1.000000
   10        5.018905   1.000000
   11        6.498183   0.871308
   12        6.498183   0.871308
   13        7.750438  -0.000000
   14        7.750438  -0.000000
   15        7.750438  -0.000000
   16        7.973547  -0.000000
   17        7.973547  -0.000000
   18        7.973547  -0.000000
   19        7.973547  -0.000000
   20        7.973547  -0.000000
   21        7.973547  -0.000000
   22       10.056533  -0.000000
   23       10.056533  -0.000000
   24       10.056533  -0.000000
   25       18.865311   0.000000
   26       18.865311   0.000000
   27       18.865311   0.000000
   28       23.062697   0.000000
   29       23.062697   0.000000
   30       23.062697   0.000000
   31       23.062697   0.000000
   32       23.062697   0.000000
   33       23.062697   0.000000
   34       29.140451   0.000000
   35       29.140451   0.000000
   36       29.140451   0.000000
   37       30.205388   0.000000
   38       33.547029   0.000000
   39       33.547029   0.000000
   40       33.547029   0.000000
 
  0.2000000E+00  0.0000000E+00  0.0000000E+00  0.4800000E-01
    1       -1.480123   1.000000
    2        1.858824   1.000000
    3        2.156104   1.000000
    4        2.156104   1.000000
    5        2.684621   1.000000
    6        2.751312   1.000000
    7        2.751312   1.000000
    8        4.748416   1.000000
    9        5.247243   1.000000
   10        5.247243   1.000000
   11        6.297758   1.027458
   12        6.435844   0.993520
   13        6.435844   0.993520
   14        6.605469   0.471058
   15        7.276138  -0.000009
   16        7.276138  -0.000009
   17        7.434121  -0.000000
   18        7.434121  -0.000000
   19        7.648015  -0.000000
   20        7.848531  -0.000000
   21        7.848531  -0.000000
   22        8.203325  -0.000000
   23       11.847584  -0.000000
   24       11.847584  -0.000000
   25       18.787813   0.000000
   26       18.787813   0.000000
   27       21.126969   0.000000
   28       21.126969   0.000000
   29       21.196626   0.000000
   30       21.992214   0.000000
   31       21.992214   0.000000
   32       23.991532   0.000000
   33       23.991532   0.000000
   34       29.010517   0.000000
   35       29.946842   0.000000
   36       31.460410   0.000000
   37       31.460410   0.000000
   38       33.241285   0.000000
   39       33.549430   0.000000
   40       33.549480   0.000000
 
  0.4000000E+00  0.0000000E+00  0.0000000E+00  0.4800000E-01
    1        0.025685   1.000000
    2        1.569207   1.000000
    3        2.826066   1.000000
    4        2.826066   1.000000
    5        3.264389   1.000000
    6        3.485586   1.000000
    7        3.485586   1.000000
    8        4.079332   1.000000
    9        4.732669   1.000000
   10        4.732669   1.000000
   11        5.775994   1.000000
   12        5.910113   1.000006
   13        5.910113   1.000006
   14        5.931242   1.000013
   15        6.559042   0.663906
   16        6.559042   0.663906
   17        6.564495   0.642111
   18        6.564495   0.642111
   19        6.899782  -0.027393
   20        7.151004  -0.000332
   21        7.838533  -0.000000
   22        7.838533  -0.000000
   23       14.715170   0.000000
   24       14.715170   0.000000
   25       17.906959   0.000000
   26       17.906959   0.000000
   27       18.767282   0.000000
   28       18.767282   0.000000
   29       20.688178   0.000000
   30       20.688178   0.000000
   31       25.738502   0.000000
   32       26.440985   0.000000
   33       26.440985   0.000000
   34       29.152483   0.000000
   35       29.522860   0.000000
   36       29.878351   0.000000
   37       29.976612   0.000000
   38       29.976612   0.000000
   39       34.866121   0.000000
   40       36.005068   0.000000
 
  0.2000000E+00  0.2000000E+00  0.0000000E+00  0.9600000E-01
    1       -0.945948   1.000000
    2        2.257560   1.000000
    3        2.257560   1.000000
    4        2.422153   1.000000
    5        2.952687   1.000000
    6        2.958245   1.000000
    7        2.958245   1.000000
    8        4.653411   1.000000
    9        5.316854   1.000000
   10        5.338049   1.000000
   11        5.861364   1.000001
   12        5.887333   1.000003
   13        5.887333   1.000003
   14        6.287336   1.025081
   15        6.695366   0.138983
   16        6.931475  -0.020130
   17        7.229408  -0.000038
   18        7.229408  -0.000038
   19        7.487514  -0.000000
   20        7.487514  -0.000000
   21        7.679418  -0.000000
   22       10.047392  -0.000000
   23       10.047392  -0.000000
   24       13.064660   0.000000
   25       17.429127   0.000000
   26       19.265793   0.000000
   27       21.261550   0.000000
   28       21.261550   0.000000
   29       21.940236   0.000000
   30       21.940236   0.000000
   31       22.934956   0.000000
   32       22.934956   0.000000
   33       24.848977   0.000000
   34       28.566326   0.000000
   35       29.728509   0.000000
   36       30.346341   0.000000
   37       31.708140   0.000000
   38       31.708140   0.000000
   39       34.357888   0.000000
   40       36.089387   0.000000
 
  0.4000000E+00  0.2000000E+00  0.0000000E+00  0.1920000E+00
    1        0.483916   1.000000
    2        1.972043   1.000000
    3        3.025773   1.000000
    4        3.091930   1.000000
    5        3.443746   1.000000
    6        3.498382   1.000000
    7        3.613869   1.000000
    8        4.096050   1.000000
    9        4.426963   1.000000
   10        4.683932   1.000000
   11        5.056250   1.000000
   12        5.262023   1.000000
   13        5.860073   1.000001
   14        6.116292   1.001703
   15        6.432856   0.997064
   16        6.559302   0.662876
   17        6.579160   0.581932
   18        6.710648   0.098688
   19        7.111036  -0.000874
   20        7.447003  -0.000000
   21        7.479599  -0.000000
   22        7.937853  -0.000000
   23       12.267977   0.000000
   24       14.602516   0.000000
   25       15.644227   0.000000
   26       18.711604   0.000000
   27       19.548779   0.000000
   28       20.427543   0.000000
   29       22.798620   0.000000
   30       23.811438   0.000000
   31       24.040200   0.000000
   32       24.276532   0.000000
   33       26.198954   0.000000
   34       26.652044   0.000000
   35       27.018235   0.000000
   36       32.379586   0.000000
   37       32.393371   0.000000
   38       33.495650   0.000000
   39       33.703316   0.000000
   40       36.364746   0.000000
 
  0.4000000E+00  0.4000000E+00  0.0000000E+00  0.9600000E-01
    1        1.660942   1.000000
    2        2.875648   1.000000
    3        2.875648   1.000000
    4        3.365082   1.000000
    5        3.771583   1.000000
    6        3.826299   1.000000
    7        3.826299   1.000000
    8        4.031096   1.000000
    9        4.256418   1.000000
   10        4.256418   1.000000
   11        4.363312   1.000000
   12        4.878337   1.000000
   13        5.846382   1.000001
   14        6.029798   1.000217
   15        6.117409   1.001744
   16        6.155145   1.003723
   17        6.155145   1.003723
   18        6.736668   0.043589
   19        6.736668   0.043589
   20        6.983620  -0.010110
   21        8.004033  -0.000000
   22        9.526072  -0.000000
   23        9.526072  -0.000000
   24       11.601015  -0.000000
   25       17.810006   0.000000
   26       20.351853   0.000000
   27       20.567347   0.000000
   28       20.567347   0.000000
   29       21.816528   0.000000
   30       21.816528   0.000000
   31       23.143561   0.000000
   32       23.858335   0.000000
   33       28.092887   0.000000
   34       28.092887   0.000000
   35       29.275683   0.000000
   36       30.924716   0.000000
   37       33.287648   0.000000
   38       35.022875   0.000000
   39       35.902242   0.000000
   40       35.902242   0.000000
 
  0.2000000E+00  0.2000000E+00  0.2000000E+00  0.6400000E-01
    1       -0.456762   1.000000
    2        2.489926   1.000000
    3        2.489926   1.000000
    4        2.489926   1.000000
    5        3.113333   1.000000
    6        3.113333   1.000000
    7        3.113333   1.000000
    8        4.535541   1.000000
    9        5.319142   1.000000
   10        5.319142   1.000000
   11        5.452919   1.000000
   12        5.452919   1.000000
   13        5.452919   1.000000
   14        6.518237   0.811599
   15        6.518237   0.811599
   16        6.518237   0.811599
   17        6.565866   0.636574
   18        6.565866   0.636574
   19        7.620268  -0.000000
   20        7.620268  -0.000000
   21        7.620268  -0.000000
   22       10.838778  -0.000000
   23       10.838778  -0.000000
   24       10.838778  -0.000000
   25       18.431533   0.000000
   26       18.431533   0.000000
   27       18.431533   0.000000
   28       21.862050   0.000000
   29       21.862050   0.000000
   30       21.862050   0.000000
   31       25.638750   0.000000
   32       25.638750   0.000000
   33       25.638750   0.000000
   34       25.643666   0.000000
   35       30.443318   0.000000
   36       30.443318   0.000000
   37       30.443318   0.000000
   38       31.107742   0.000000
   39       34.931525   0.000000
   40       34.931525   0.000000
 
  0.4000000E+00  0.2000000E+00  0.2000000E+00  0.1920000E+00
    1        0.829506   1.000000
    2        2.163661   1.000000
    3        3.080790   1.000000
    4        3.080790   1.000000
    5        3.527432   1.000000
    6        3.527432   1.000000
    7        3.655619   1.000000
    8        4.225759   1.000000
    9        4.717491   1.000000
   10        4.717491   1.000000
   11        4.895702   1.000000
   12        5.192620   1.000000
   13        5.469216   1.000000
   14        5.960984   1.000031
   15        6.155137   1.003723
   16        6.155137   1.003723
   17        6.656183   0.267275
   18        7.063648  -0.002440
   19        7.448360  -0.000000
   20        7.490618  -0.000000
   21        7.490618  -0.000000
   22        8.138561  -0.000000
   23       12.364657   0.000000
   24       12.364657   0.000000
   25       15.903342   0.000000
   26       15.903342   0.000000
   27       20.286990   0.000000
   28       22.657794   0.000000
   29       22.657794   0.000000
   30       22.728897   0.000000
   31       24.913206   0.000000
   32       24.913206   0.000000
   33       26.566365   0.000000
   34       27.894244   0.000000
   35       29.656214   0.000000
   36       31.157824   0.000000
   37       31.244100   0.000000
   38       33.520800   0.000000
   39       33.520800   0.000000
   40       34.786890   0.000000
 
  0.4000000E+00  0.4000000E+00  0.2000000E+00  0.1920000E+00
    1        1.646218   1.000000
    2        2.507721   1.000000
    3        2.507721   1.000000
    4        2.842069   1.000000
    5        4.029338   1.000000
    6        4.211633   1.000000
    7        4.211633   1.000000
    8        4.579147   1.000000
    9        4.744892   1.000000
   10        4.744892   1.000000
   11        4.942012   1.000000
   12        4.986160   1.000000
   13        5.299063   1.000000
   14        5.584678   1.000000
   15        5.584678   1.000000
   16        5.656591   1.000000
   17        6.676910   0.195208
   18        7.210372  -0.000067
   19        7.210372  -0.000067
   20        7.307281  -0.000003
   21        7.775009  -0.000000
   22        9.381030  -0.000000
   23        9.381030  -0.000000
   24       11.097951  -0.000000
   25       15.685548   0.000000
   26       17.491686   0.000000
   27       17.491686   0.000000
   28       19.752155   0.000000
   29       23.874225   0.000000
   30       25.631116   0.000000
   31       25.631116   0.000000
   32       27.678417   0.000000
   33       28.540989   0.000000
   34       28.540989   0.000000
   35       29.853812   0.000000
   36       30.841873   0.000000
   37       32.430716   0.000000
   38       33.725572   0.000000
   39       33.725572   0.000000
   40       35.309680   0.000000
 
  0.4000000E+00  0.4000000E+00  0.4000000E+00  0.6400000E-01
    1        1.749626   1.000000
    2        2.150278   1.000000
    3        2.150278   1.000000
    4        2.150278   1.000000
    5        4.633450   1.000000
    6        4.633450   1.000000
    7        4.633450   1.000000
    8        4.980166   1.000000
    9        4.980166   1.000000
   10        5.128398   1.000000
   11        5.128398   1.000000
   12        5.128398   1.000000
   13        5.720406   1.000000
   14        5.720406   1.000000
   15        5.720406   1.000000
   16        5.895683   1.000004
   17        7.288342  -0.000006
   18        7.288342  -0.000006
   19        7.515620  -0.000000
   20        7.515620  -0.000000
   21        7.515620  -0.000000
   22        8.947399  -0.000000
   23        8.947399  -0.000000
   24        8.947399  -0.000000
   25       15.465924   0.000000
   26       15.465924   0.000000
   27       15.465924   0.000000
   28       17.039366   0.000000
   29       27.859600   0.000000
   30       27.859600   0.000000
   31       27.859600   0.000000
   32       29.133575   0.000000
   33       31.436270   0.000000
   34       31.436270   0.000000
   35       31.436270   0.000000
   36       31.863592   0.000000
   37       31.863592   0.000000
   38       31.863592   0.000000
   39       34.009493   0.000000
   40       34.009493   0.000000
