<?xml version="1.0" encoding="ISO-8859-1"?>
<modeling>
 <generator>
  <i name="program" type="string">vasp </i>
  <i name="version" type="string">6.2.0  </i>
  <i name="subversion" type="string">18Jan21 (build Mar 17 2021 09:06:54) complex                          serial </i>
  <i name="platform" type="string">LinuxIFC </i>
  <i name="date" type="string">2021 09 09 </i>
  <i name="time" type="string">09:02:17 </i>
 </generator>
 <incar>
  <i type="string" name="PREC">normal</i>
  <i type="int" name="ICHARG">     1</i>
  <i type="int" name="IBRION">    -1</i>
  <i name="EDIFF">      0.00000100</i>
  <i type="int" name="NSW">     0</i>
  <i name="ENCUT">    210.00000000</i>
  <i type="int" name="NBANDS">    40</i>
  <i type="int" name="ISMEAR">     1</i>
  <i name="SIGMA">      0.20000000</i>
  <i type="logical" name="LCHARG"> T  </i>
  <i type="int" name="KPAR">     1</i>
  <i type="int" name="NCORE">     1</i>
  <i type="string" name="GGA">PE</i>
 </incar>
 <primitive_cell>
  <structure name="primitive_cell" >
   <crystal>
    <varray name="basis" >
     <v>       1.72254150      -1.72254150       0.00000000 </v>
     <v>       1.72254150       0.00000000       1.72254150 </v>
     <v>       0.00000000      -1.72254150       1.72254150 </v>
    </varray>
    <i name="volume">     10.22207533 </i>
    <varray name="rec_basis" >
     <v>       0.29026877      -0.29026877      -0.29026877 </v>
     <v>       0.29026877       0.29026877       0.29026877 </v>
     <v>      -0.29026877      -0.29026877       0.29026877 </v>
    </varray>
   </crystal>
   <varray name="positions" >
    <v>       0.00000000       0.00000000       0.00000000 </v>
   </varray>
  </structure>
  <varray name="primitive_index" >
   <v type="int" >        1 </v>
  </varray>
 </primitive_cell>
 <kpoints>
  <generation param="Monkhorst-Pack">
   <v type="int" name="divisions">       5        5        5 </v>
   <v name="usershift">      0.00000000       0.00000000       0.00000000 </v>
   <v name="genvec1">      0.20000000       0.00000000       0.00000000 </v>
   <v name="genvec2">      0.00000000       0.20000000       0.00000000 </v>
   <v name="genvec3">      0.00000000       0.00000000       0.20000000 </v>
   <v name="shift">      0.00000000       0.00000000       0.00000000 </v>
  </generation>
  <varray name="kpointlist" >
   <v>       0.00000000       0.00000000       0.00000000 </v>
   <v>       0.20000000       0.00000000       0.00000000 </v>
   <v>       0.40000000       0.00000000       0.00000000 </v>
   <v>       0.20000000       0.20000000       0.00000000 </v>
   <v>       0.40000000       0.20000000       0.00000000 </v>
   <v>       0.40000000       0.40000000       0.00000000 </v>
   <v>       0.20000000       0.20000000       0.20000000 </v>
   <v>       0.40000000       0.20000000       0.20000000 </v>
   <v>       0.40000000       0.40000000       0.20000000 </v>
   <v>       0.40000000       0.40000000       0.40000000 </v>
  </varray>
  <varray name="weights" >
   <v>       0.00800000 </v>
   <v>       0.04800000 </v>
   <v>       0.04800000 </v>
   <v>       0.09600000 </v>
   <v>       0.19200000 </v>
   <v>       0.09600000 </v>
   <v>       0.06400000 </v>
   <v>       0.19200000 </v>
   <v>       0.19200000 </v>
   <v>       0.06400000 </v>
  </varray>
 </kpoints>
 <parameters>
  <separator name="general" >
   <i type="string" name="SYSTEM">unknown system</i>
   <i type="logical" name="LCOMPAT"> F  </i>
  </separator>
  <separator name="electronic" >
   <i type="string" name="PREC">normal</i>
   <i name="ENMAX">    210.00000000</i>
   <i name="ENAUG">    511.36800000</i>
   <i name="EDIFF">      0.00000100</i>
   <i type="int" name="IALGO">    38</i>
   <i type="int" name="IWAVPR">     0</i>
   <i type="int" name="NBANDS">    40</i>
   <i type="int" name="NBANDSLOW">    -1</i>
   <i type="int" name="NBANDSHIGH">    -1</i>
   <i name="NELECT">     32.00000000</i>
   <i type="int" name="TURBO">     0</i>
   <i type="int" name="IRESTART">     0</i>
   <i type="int" name="NREBOOT">     0</i>
   <i type="int" name="NMIN">     0</i>
   <i name="EREF">      0.00000000</i>
   <separator name="electronic smearing" >
    <i type="int" name="ISMEAR">     1</i>
    <i name="SIGMA">      0.20000000</i>
    <i name="KSPACING">      0.50000000</i>
    <i type="logical" name="KGAMMA"> T  </i>
    <i type="logical" name="KBLOWUP"> T  </i>
   </separator>
   <separator name="electronic projectors" >
    <i type="logical" name="LREAL"> F  </i>
    <v name="ROPT">      0.00000000</v>
    <i type="int" name="LMAXPAW">  -100</i>
    <i type="int" name="LMAXMIX">     2</i>
    <i type="logical" name="NLSPLINE"> F  </i>
   </separator>
   <separator name="electronic startup" >
    <i type="int" name="ISTART">     0</i>
    <i type="int" name="ICHARG">     1</i>
    <i type="int" name="INIWAV">     1</i>
   </separator>
   <separator name="electronic spin" >
    <i type="int" name="ISPIN">     1</i>
    <i type="logical" name="LNONCOLLINEAR"> F  </i>
    <v name="MAGMOM">      1.00000000      1.00000000      1.00000000      1.00000000</v>
    <i name="NUPDOWN">     -1.00000000</i>
    <i type="logical" name="LSORBIT"> F  </i>
    <v name="SAXIS">      0.00000000      0.00000000      1.00000000</v>
    <i type="logical" name="LSPIRAL"> F  </i>
    <v name="QSPIRAL">      0.00000000      0.00000000      0.00000000</v>
    <i type="logical" name="LZEROZ"> F  </i>
   </separator>
   <separator name="electronic exchange-correlation" >
    <i type="logical" name="LASPH"> F  </i>
    <i type="logical" name="LMETAGGA"> F  </i>
   </separator>
   <separator name="electronic convergence" >
    <i type="int" name="NELM">    60</i>
    <i type="int" name="NELMDL">    -5</i>
    <i type="int" name="NELMIN">     2</i>
    <i name="ENINI">    210.00000000</i>
    <separator name="electronic convergence detail" >
     <i type="logical" name="LDIAG"> T  </i>
     <i type="logical" name="LSUBROT"> F  </i>
     <i name="WEIMIN">      0.00000000</i>
     <i name="EBREAK">      0.00000001</i>
     <i name="DEPER">      0.30000000</i>
     <i type="int" name="NRMM">     4</i>
     <i name="TIME">      0.40000000</i>
    </separator>
   </separator>
   <separator name="electronic mixer" >
    <i name="AMIX">      0.40000000</i>
    <i name="BMIX">      1.00000000</i>
    <i name="AMIN">      0.10000000</i>
    <i name="AMIX_MAG">      1.60000000</i>
    <i name="BMIX_MAG">      1.00000000</i>
    <separator name="electronic mixer details" >
     <i type="int" name="IMIX">     4</i>
     <i type="logical" name="MIXFIRST"> F  </i>
     <i type="int" name="MAXMIX">   -45</i>
     <i name="WC">    100.00000000</i>
     <i type="int" name="INIMIX">     1</i>
     <i type="int" name="MIXPRE">     1</i>
     <i type="int" name="MREMOVE">     5</i>
    </separator>
   </separator>
   <separator name="electronic dipolcorrection" >
    <i type="logical" name="LDIPOL"> F  </i>
    <i type="logical" name="LMONO"> F  </i>
    <i type="int" name="IDIPOL">     0</i>
    <i name="EPSILON">      1.00000000</i>
    <v name="DIPOL">   -100.00000000   -100.00000000   -100.00000000</v>
    <i name="EFIELD">      0.00000000</i>
   </separator>
  </separator>
  <separator name="grids" >
   <i type="int" name="NGX">    12</i>
   <i type="int" name="NGY">    12</i>
   <i type="int" name="NGZ">    12</i>
   <i type="int" name="NGXF">    24</i>
   <i type="int" name="NGYF">    24</i>
   <i type="int" name="NGZF">    24</i>
   <i type="logical" name="ADDGRID"> F  </i>
  </separator>
  <separator name="ionic" >
   <i type="int" name="NSW">     0</i>
   <i type="int" name="IBRION">    -1</i>
   <i type="int" name="MDALGO">     0</i>
   <i type="int" name="ISIF">     2</i>
   <i name="PSTRESS">      0.00000000</i>
   <i name="EDIFFG">      0.00001000</i>
   <i type="int" name="NFREE">     0</i>
   <i name="POTIM">      0.50000000</i>
   <i name="SMASS">     -3.00000000</i>
   <i name="SCALEE">      1.00000000</i>
  </separator>
  <separator name="ionic md" >
   <i name="TEBEG">      0.00010000</i>
   <i name="TEEND">      0.00010000</i>
   <i type="int" name="NBLOCK">     1</i>
   <i type="int" name="KBLOCK">     1</i>
   <i type="int" name="NPACO">   256</i>
   <i name="APACO">     16.00000000</i>
  </separator>
  <separator name="symmetry" >
   <i type="int" name="ISYM">     2</i>
   <i name="SYMPREC">      0.00001000</i>
  </separator>
  <separator name="dos" >
   <i type="int" name="LORBIT">     0</i>
   <v name="RWIGS">     -1.00000000</v>
   <i type="int" name="NEDOS">   301</i>
   <i name="EMIN">     10.00000000</i>
   <i name="EMAX">    -10.00000000</i>
   <i name="EFERMI">      0.00000000</i>
  </separator>
  <separator name="writing" >
   <i type="int" name="NWRITE">     2</i>
   <i type="logical" name="LWAVE"> T  </i>
   <i type="logical" name="LDOWNSAMPLE"> F  </i>
   <i type="logical" name="LCHARG"> T  </i>
   <i type="logical" name="LPARD"> F  </i>
   <i type="logical" name="LVTOT"> F  </i>
   <i type="logical" name="LVHAR"> F  </i>
   <i type="logical" name="LELF"> F  </i>
   <i type="logical" name="LOPTICS"> F  </i>
   <v name="STM">      0.00000000      0.00000000      0.00000000      0.00000000      0.00000000      0.00000000      0.00000000</v>
  </separator>
  <separator name="performance" >
   <i type="int" name="NPAR">     1</i>
   <i type="int" name="NSIM">     4</i>
   <i type="int" name="NBLK">    -1</i>
   <i type="logical" name="LPLANE"> T  </i>
   <i type="logical" name="LSCALAPACK"> F  </i>
   <i type="logical" name="LSCAAWARE"> F  </i>
   <i type="logical" name="LSCALU"> F  </i>
   <i type="logical" name="LASYNC"> F  </i>
   <i type="logical" name="LORBITALREAL"> F  </i>
  </separator>
  <separator name="miscellaneous" >
   <i type="int" name="IDIOT">     3</i>
   <i type="int" name="PHON_NSTRUCT">    -1</i>
   <i type="logical" name="LMUSIC"> F  </i>
   <v name="POMASS">     55.84700000</v>
   <v name="DARWINR">      0.00000000</v>
   <v name="DARWINV">      1.00000000</v>
   <i type="logical" name="LCORR"> T  </i>
  </separator>
  <i type="logical" name="GGA_COMPAT"> T  </i>
  <i type="logical" name="LBERRY"> F  </i>
  <i type="int" name="ICORELEVEL">     0</i>
  <i type="logical" name="LDAU"> F  </i>
  <i type="int" name="I_CONSTRAINED_M">     0</i>
  <separator name="electronic exchange-correlation" >
   <i type="string" name="GGA">PE</i>
   <i type="int" name="VOSKOWN">     0</i>
   <i type="logical" name="LHFCALC"> F  </i>
   <i type="string" name="PRECFOCK"></i>
   <i type="logical" name="LSYMGRAD"> F  </i>
   <i type="logical" name="LHFONE"> F  </i>
   <i type="logical" name="LRHFCALC"> F  </i>
   <i type="logical" name="LTHOMAS"> F  </i>
   <i type="logical" name="LMODELHF"> F  </i>
   <i type="logical" name="LFOCKACE"> F  </i>
   <i name="ENCUT4O">     -1.00000000</i>
   <i type="int" name="EXXOEP">     0</i>
   <i type="int" name="FOURORBIT">     0</i>
   <i name="AEXX">      0.00000000</i>
   <i name="HFALPHA">      0.00000000</i>
   <i name="MCALPHA">      0.00000000</i>
   <i name="ALDAX">      1.00000000</i>
   <i name="AGGAX">      1.00000000</i>
   <i name="ALDAC">      1.00000000</i>
   <i name="AGGAC">      1.00000000</i>
   <i type="int" name="NKREDX">     1</i>
   <i type="int" name="NKREDY">     1</i>
   <i type="int" name="NKREDZ">     1</i>
   <i type="logical" name="SHIFTRED"> F  </i>
   <i type="logical" name="ODDONLY"> F  </i>
   <i type="logical" name="EVENONLY"> F  </i>
   <i type="int" name="LMAXFOCK">     0</i>
   <i type="int" name="NMAXFOCKAE">     0</i>
   <i type="logical" name="LFOCKAEDFT"> F  </i>
   <i name="HFSCREEN">      0.00000000</i>
   <i name="HFSCREENC">      0.00000000</i>
   <i type="int" name="NBANDSGWLOW">     0</i>
  </separator>
  <separator name="vdW DFT" >
   <i type="logical" name="LUSE_VDW"> F  </i>
   <i name="Zab_VDW">     -0.84910000</i>
   <i name="PARAM1">      0.12340000</i>
   <i name="PARAM2">      1.00000000</i>
   <i name="PARAM3">      0.00000000</i>
  </separator>
  <separator name="model GW" >
   <i type="int" name="MODEL_GW">     0</i>
   <i name="MODEL_EPS0">      6.13324520</i>
   <i name="MODEL_ALPHA">      1.00000000</i>
  </separator>
  <separator name="linear response parameters" >
   <i type="logical" name="LEPSILON"> F  </i>
   <i type="logical" name="LRPA"> F  </i>
   <i type="logical" name="LNABLA"> F  </i>
   <i type="logical" name="LVEL"> F  </i>
   <i type="int" name="KINTER">     0</i>
   <i name="CSHIFT">      0.10000000</i>
   <i name="OMEGAMAX">     -1.00000000</i>
   <i name="DEG_THRESHOLD">      0.00200000</i>
   <i name="RTIME">     -0.10000000</i>
   <i name="WPLASMAI">      0.00000000</i>
   <v name="DFIELD">      0.00000000      0.00000000      0.00000000</v>
   <v name="WPLASMA">      0.00000000      0.00000000      0.00000000      0.00000000      0.00000000      0.00000000      0.00000000      0.00000000      0.00000000</v>
  </separator>
  <separator name="orbital magnetization" >
   <i type="logical" name="NUCIND"> F  </i>
   <v name="MAGPOS">      0.00000000      0.00000000      0.00000000</v>
   <i type="logical" name="LNICSALL"> T  </i>
   <i type="logical" name="ORBITALMAG"> F  </i>
   <i type="logical" name="LMAGBLOCH"> F  </i>
   <i type="logical" name="LCHIMAG"> F  </i>
   <i type="logical" name="LGAUGE"> T  </i>
   <i type="int" name="MAGATOM">     0</i>
   <v name="MAGDIPOL">      0.00000000      0.00000000      0.00000000</v>
   <v name="AVECCONST">      0.00000000      0.00000000      0.00000000</v>
  </separator>
  <separator name="response functions" >
   <i type="logical" name="LFINITE_TEMPERATURE"> F  </i>
   <i type="logical" name="LADDER"> F  </i>
   <i type="logical" name="LRPAFORCE"> F  </i>
   <i type="logical" name="LFXC"> F  </i>
   <i type="logical" name="LHARTREE"> T  </i>
   <i type="int" name="IBSE">     0</i>
   <v type="int" name="KPOINT">    -1     0     0     0</v>
   <i type="logical" name="LTCTC"> F  </i>
   <i type="logical" name="LTCTE"> F  </i>
   <i type="logical" name="LTETE"> F  </i>
   <i type="logical" name="LTRIPLET"> F  </i>
   <i type="logical" name="LFXCEPS"> F  </i>
   <i type="logical" name="LFXHEG"> F  </i>
   <i type="int" name="NATURALO">     2</i>
   <i type="logical" name="LHOLEGF"> F  </i>
   <i type="logical" name="L2ORDER"> F  </i>
   <i type="logical" name="LDMP1"> F  </i>
   <i type="logical" name="LMP2LT"> F  </i>
   <i type="logical" name="LSMP2LT"> F  </i>
   <i type="logical" name="LGWLF"> F  </i>
   <i name="ENCUTGW">     -2.00000000</i>
   <i name="ENCUTGWSOFT">     -2.00000000</i>
   <i name="ENCUTLF">     -1.00000000</i>
   <i type="logical" name="LESF_SPLINES"> F  </i>
   <i type="int" name="LMAXMP2">    -1</i>
   <i name="SCISSOR">      0.00000000</i>
   <i type="int" name="NOMEGA">     0</i>
   <i type="int" name="NOMEGAR">     0</i>
   <i type="int" name="NBANDSGW">    -1</i>
   <i type="int" name="NBANDSO">    -1</i>
   <i type="int" name="NBANDSV">    -1</i>
   <i type="int" name="NELM">     1</i>
   <i type="int" name="NELMHF">     1</i>
   <i type="int" name="DIM">     3</i>
   <i type="int" name="IESPILON">     4</i>
   <i type="int" name="ANTIRES">     0</i>
   <i name="OMEGAMAX">    -30.00000000</i>
   <i name="OMEGAMIN">    -30.00000000</i>
   <i name="OMEGATL">   -200.00000000</i>
   <i type="int" name="OMEGAGRID">     0</i>
   <i name="CSHIFT">     -0.10000000</i>
   <i type="logical" name="LSELFENERGY"> F  </i>
   <i type="logical" name="LSPECTRAL"> F  </i>
   <i type="logical" name="LSPECTRALGW"> F  </i>
   <i type="logical" name="LSINGLES"> F  </i>
   <i type="logical" name="LFERMIGW"> F  </i>
   <i type="logical" name="ODDONLYGW"> F  </i>
   <i type="logical" name="EVENONLYGW"> F  </i>
   <i type="int" name="NKREDLFX">     1</i>
   <i type="int" name="NKREDLFY">     1</i>
   <i type="int" name="NKREDLFZ">     1</i>
   <i type="int" name="MAXMEM">  2800</i>
   <i type="int" name="TELESCOPE">     0</i>
   <i type="int" name="NTAUPAR">    -1</i>
   <i type="int" name="NOMEGAPAR">    -1</i>
   <i name="DAMP_NEWTON">      0.80000001</i>
   <i name="LAMBDA">      1.00000000</i>
  </separator>
  <separator name="External order field" >
   <i name="OFIELD_KAPPA">      0.00000000</i>
   <v name="OFIELD_K">      0.00000000      0.00000000      0.00000000</v>
   <i name="OFIELD_Q6_NEAR">      0.00000000</i>
   <i name="OFIELD_Q6_FAR">      0.00000000</i>
   <i name="OFIELD_A">      0.00000000</i>
  </separator>
 </parameters>
 <atominfo>
  <atoms>       4 </atoms>
  <types>       1 </types>
  <array name="atoms" >
   <dimension dim="1">ion</dimension>
   <field type="string">element</field>
   <field type="int">atomtype</field>
   <set>
    <rc><c>Fe</c><c>   1</c></rc>
    <rc><c>Fe</c><c>   1</c></rc>
    <rc><c>Fe</c><c>   1</c></rc>
    <rc><c>Fe</c><c>   1</c></rc>
   </set>
  </array>
  <array name="atomtypes" >
   <dimension dim="1">type</dimension>
   <field type="int">atomspertype</field>
   <field type="string">element</field>
   <field>mass</field>
   <field>valence</field>
   <field type="string">pseudopotential</field>
   <set>
    <rc><c>   4</c><c>Fe</c><c>     55.84700000</c><c>      8.00000000</c><c>  PAW_PBE Fe 06Sep2000                  </c></rc>
   </set>
  </array>
 </atominfo>
 <structure name="initialpos" >
  <crystal>
   <varray name="basis" >
    <v>       3.44508300       0.00000000       0.00000000 </v>
    <v>       0.00000000       3.44508300       0.00000000 </v>
    <v>       0.00000000       0.00000000       3.44508300 </v>
   </varray>
   <i name="volume">     40.88830133 </i>
   <varray name="rec_basis" >
    <v>       0.29026877       0.00000000       0.00000000 </v>
    <v>       0.00000000       0.29026877       0.00000000 </v>
    <v>       0.00000000       0.00000000       0.29026877 </v>
   </varray>
  </crystal>
  <varray name="positions" >
   <v>       0.00000000       0.00000000       0.00000000 </v>
   <v>       0.50000000       0.50000000       0.00000000 </v>
   <v>       0.50000000       0.00000000       0.50000000 </v>
   <v>       0.00000000       0.50000000       0.50000000 </v>
  </varray>
 </structure>
 <calculation>
  <scstep>
   <time name="dav">    0.09    0.09</time>
   <time name="total">    0.09    0.10</time>
   <energy>
    <i name="alphaZ">    270.44909666 </i>
    <i name="ewald">  -2452.97223925 </i>
    <i name="hartreedc">   -414.53988316 </i>
    <i name="XCdc">     16.92907004 </i>
    <i name="pawpsdc">   2219.38341365 </i>
    <i name="pawaedc">  -2250.19294531 </i>
    <i name="eentropy">      0.01388731 </i>
    <i name="bandstr">    346.06837474 </i>
    <i name="atom">   2375.45921910 </i>
    <i name="e_fr_energy">    110.59799379 </i>
    <i name="e_wo_entrp">    110.58410648 </i>
    <i name="e_0_energy">    110.59336469 </i>
   </energy>
  </scstep>
  <scstep>
   <time name="dav">    0.08    0.08</time>
   <time name="total">    0.08    0.08</time>
   <energy>
    <i name="e_fr_energy">    -31.96337654 </i>
    <i name="e_wo_entrp">    -31.94864919 </i>
    <i name="e_0_energy">    -31.95846742 </i>
   </energy>
  </scstep>
  <scstep>
   <time name="dav">    0.08    0.08</time>
   <time name="total">    0.09    0.09</time>
   <energy>
    <i name="e_fr_energy">    -38.62503501 </i>
    <i name="e_wo_entrp">    -38.58874351 </i>
    <i name="e_0_energy">    -38.61293784 </i>
   </energy>
  </scstep>
  <scstep>
   <time name="dav">    0.08    0.08</time>
   <time name="total">    0.08    0.08</time>
   <energy>
    <i name="e_fr_energy">    -38.66076983 </i>
    <i name="e_wo_entrp">    -38.62445785 </i>
    <i name="e_0_energy">    -38.64866583 </i>
   </energy>
  </scstep>
  <scstep>
   <time name="dav">    0.08    0.08</time>
   <time name="total">    0.09    0.09</time>
   <energy>
    <i name="e_fr_energy">    -38.66097774 </i>
    <i name="e_wo_entrp">    -38.62466563 </i>
    <i name="e_0_energy">    -38.64887370 </i>
   </energy>
  </scstep>
  <scstep>
   <time name="dav">    0.08    0.08</time>
   <time name="total">    0.09    0.09</time>
   <energy>
    <i name="e_fr_energy">    -31.50388180 </i>
    <i name="e_wo_entrp">    -31.45021080 </i>
    <i name="e_0_energy">    -31.48599147 </i>
   </energy>
  </scstep>
  <scstep>
   <time name="dav">    0.08    0.08</time>
   <time name="total">    0.10    0.10</time>
   <energy>
    <i name="e_fr_energy">    -31.24526339 </i>
    <i name="e_wo_entrp">    -31.19222951 </i>
    <i name="e_0_energy">    -31.22758543 </i>
   </energy>
  </scstep>
  <scstep>
   <time name="dav">    0.09    0.09</time>
   <time name="total">    0.10    0.10</time>
   <energy>
    <i name="e_fr_energy">    -31.21689190 </i>
    <i name="e_wo_entrp">    -31.16323419 </i>
    <i name="e_0_energy">    -31.19900600 </i>
   </energy>
  </scstep>
  <scstep>
   <time name="dav">    0.08    0.08</time>
   <time name="total">    0.09    0.09</time>
   <energy>
    <i name="e_fr_energy">    -31.19806056 </i>
    <i name="e_wo_entrp">    -31.14446108 </i>
    <i name="e_0_energy">    -31.18019407 </i>
   </energy>
  </scstep>
  <scstep>
   <time name="dav">    0.08    0.08</time>
   <time name="total">    0.10    0.10</time>
   <energy>
    <i name="e_fr_energy">    -31.19796445 </i>
    <i name="e_wo_entrp">    -31.14434911 </i>
    <i name="e_0_energy">    -31.18009267 </i>
   </energy>
  </scstep>
  <scstep>
   <time name="dav">    0.08    0.08</time>
   <time name="total">    0.09    0.09</time>
   <energy>
    <i name="e_fr_energy">    -31.19786927 </i>
    <i name="e_wo_entrp">    -31.14427526 </i>
    <i name="e_0_energy">    -31.18000460 </i>
   </energy>
  </scstep>
  <scstep>
   <time name="dav">    0.06    0.06</time>
   <time name="total">    0.07    0.07</time>
   <energy>
    <i name="e_fr_energy">    -31.19785452 </i>
    <i name="e_wo_entrp">    -31.14426325 </i>
    <i name="e_0_energy">    -31.17999077 </i>
   </energy>
  </scstep>
  <scstep>
   <time name="dav">    0.05    0.05</time>
   <time name="total">    0.07    0.07</time>
   <energy>
    <i name="e_fr_energy">    -31.19785571 </i>
    <i name="e_wo_entrp">    -31.14426416 </i>
    <i name="e_0_energy">    -31.17999186 </i>
   </energy>
  </scstep>
  <scstep>
   <time name="dav">    0.05    0.05</time>
   <time name="total">    0.06    0.06</time>
   <energy>
    <i name="alphaZ">    270.44909666 </i>
    <i name="ewald">  -2452.97223925 </i>
    <i name="hartreedc">   -343.79602941 </i>
    <i name="XCdc">     13.44819659 </i>
    <i name="pawpsdc">   2986.46340545 </i>
    <i name="pawaedc">  -3015.74064379 </i>
    <i name="eentropy">     -0.05359119 </i>
    <i name="bandstr">    135.54472996 </i>
    <i name="atom">   2375.45921910 </i>
    <i name="e_fr_energy">    -31.19785589 </i>
    <i name="e_wo_entrp">    -31.14426470 </i>
    <i name="e_0_energy">    -31.17999216 </i>
   </energy>
  </scstep>
  <structure>
   <crystal>
    <varray name="basis" >
     <v>       3.44508300       0.00000000       0.00000000 </v>
     <v>       0.00000000       3.44508300       0.00000000 </v>
     <v>       0.00000000       0.00000000       3.44508300 </v>
    </varray>
    <i name="volume">     40.88830133 </i>
    <varray name="rec_basis" >
     <v>       0.29026877       0.00000000       0.00000000 </v>
     <v>       0.00000000       0.29026877       0.00000000 </v>
     <v>       0.00000000       0.00000000       0.29026877 </v>
    </varray>
   </crystal>
   <varray name="positions" >
    <v>       0.00000000       0.00000000       0.00000000 </v>
    <v>       0.50000000       0.50000000       0.00000000 </v>
    <v>       0.50000000       0.00000000       0.50000000 </v>
    <v>       0.00000000       0.50000000       0.50000000 </v>
   </varray>
  </structure>
  <varray name="forces" >
   <v>      -0.00000000       0.00000000      -0.00000000 </v>
   <v>      -0.00000000      -0.00000000       0.00000000 </v>
   <v>       0.00000000      -0.00000000       0.00000000 </v>
   <v>       0.00000000       0.00000000      -0.00000000 </v>
  </varray>
  <varray name="stress" >
   <v>    -816.51123296       0.00000000      -0.00000000 </v>
   <v>       0.00000000    -816.51123296      -0.00000000 </v>
   <v>       0.00000000       0.00000000    -816.51123296 </v>
  </varray>
  <energy>
   <i name="e_fr_energy">    -31.19785589 </i>
   <i name="e_wo_entrp">    -31.14426470 </i>
   <i name="e_0_energy">    -31.17999216 </i>
  </energy>
  <time name="totalsc">    1.31    1.31</time>
  <eigenvalues>
   <array>
    <dimension dim="1">band</dimension>
    <dimension dim="2">kpoint</dimension>
    <dimension dim="3">spin</dimension>
    <field>eigene</field>
    <field>occ</field>
    <set>
     <set comment="spin 1">
      <set comment="kpoint 1">
       <r>   -2.0405    1.0000 </r>
       <r>    1.8466    1.0000 </r>
       <r>    1.8466    1.0000 </r>
       <r>    1.8466    1.0000 </r>
       <r>    2.5061    1.0000 </r>
       <r>    2.5061    1.0000 </r>
       <r>    2.5061    1.0000 </r>
       <r>    5.0189    1.0000 </r>
       <r>    5.0189    1.0000 </r>
       <r>    5.0189    1.0000 </r>
       <r>    6.4982    0.8713 </r>
       <r>    6.4982    0.8713 </r>
       <r>    7.7504   -0.0000 </r>
       <r>    7.7504   -0.0000 </r>
       <r>    7.7504   -0.0000 </r>
       <r>    7.9735   -0.0000 </r>
       <r>    7.9735   -0.0000 </r>
       <r>    7.9735   -0.0000 </r>
       <r>    7.9735   -0.0000 </r>
       <r>    7.9735   -0.0000 </r>
       <r>    7.9735   -0.0000 </r>
       <r>   10.0565   -0.0000 </r>
       <r>   10.0565   -0.0000 </r>
       <r>   10.0565   -0.0000 </r>
       <r>   18.8653    0.0000 </r>
       <r>   18.8653    0.0000 </r>
       <r>   18.8653    0.0000 </r>
       <r>   23.0627    0.0000 </r>
       <r>   23.0627    0.0000 </r>
       <r>   23.0627    0.0000 </r>
       <r>   23.0627    0.0000 </r>
       <r>   23.0627    0.0000 </r>
       <r>   23.0627    0.0000 </r>
       <r>   29.1405    0.0000 </r>
       <r>   29.1405    0.0000 </r>
       <r>   29.1405    0.0000 </r>
       <r>   30.2054    0.0000 </r>
       <r>   33.5470    0.0000 </r>
       <r>   33.5470    0.0000 </r>
       <r>   33.5470    0.0000 </r>
      </set>
      <set comment="kpoint 2">
       <r>   -1.4801    1.0000 </r>
       <r>    1.8588    1.0000 </r>
       <r>    2.1561    1.0000 </r>
       <r>    2.1561    1.0000 </r>
       <r>    2.6846    1.0000 </r>
       <r>    2.7513    1.0000 </r>
       <r>    2.7513    1.0000 </r>
       <r>    4.7484    1.0000 </r>
       <r>    5.2472    1.0000 </r>
       <r>    5.2472    1.0000 </r>
       <r>    6.2978    1.0275 </r>
       <r>    6.4358    0.9935 </r>
       <r>    6.4358    0.9935 </r>
       <r>    6.6055    0.4711 </r>
       <r>    7.2761   -0.0000 </r>
       <r>    7.2761   -0.0000 </r>
       <r>    7.4341   -0.0000 </r>
       <r>    7.4341   -0.0000 </r>
       <r>    7.6480   -0.0000 </r>
       <r>    7.8485   -0.0000 </r>
       <r>    7.8485   -0.0000 </r>
       <r>    8.2033   -0.0000 </r>
       <r>   11.8476   -0.0000 </r>
       <r>   11.8476   -0.0000 </r>
       <r>   18.7878    0.0000 </r>
       <r>   18.7878    0.0000 </r>
       <r>   21.1270    0.0000 </r>
       <r>   21.1270    0.0000 </r>
       <r>   21.1966    0.0000 </r>
       <r>   21.9922    0.0000 </r>
       <r>   21.9922    0.0000 </r>
       <r>   23.9915    0.0000 </r>
       <r>   23.9915    0.0000 </r>
       <r>   29.0105    0.0000 </r>
       <r>   29.9468    0.0000 </r>
       <r>   31.4604    0.0000 </r>
       <r>   31.4604    0.0000 </r>
       <r>   33.2413    0.0000 </r>
       <r>   33.5494    0.0000 </r>
       <r>   33.5495    0.0000 </r>
      </set>
      <set comment="kpoint 3">
       <r>    0.0257    1.0000 </r>
       <r>    1.5692    1.0000 </r>
       <r>    2.8261    1.0000 </r>
       <r>    2.8261    1.0000 </r>
       <r>    3.2644    1.0000 </r>
       <r>    3.4856    1.0000 </r>
       <r>    3.4856    1.0000 </r>
       <r>    4.0793    1.0000 </r>
       <r>    4.7327    1.0000 </r>
       <r>    4.7327    1.0000 </r>
       <r>    5.7760    1.0000 </r>
       <r>    5.9101    1.0000 </r>
       <r>    5.9101    1.0000 </r>
       <r>    5.9312    1.0000 </r>
       <r>    6.5590    0.6639 </r>
       <r>    6.5590    0.6639 </r>
       <r>    6.5645    0.6421 </r>
       <r>    6.5645    0.6421 </r>
       <r>    6.8998   -0.0274 </r>
       <r>    7.1510   -0.0003 </r>
       <r>    7.8385   -0.0000 </r>
       <r>    7.8385   -0.0000 </r>
       <r>   14.7152    0.0000 </r>
       <r>   14.7152    0.0000 </r>
       <r>   17.9070    0.0000 </r>
       <r>   17.9070    0.0000 </r>
       <r>   18.7673    0.0000 </r>
       <r>   18.7673    0.0000 </r>
       <r>   20.6882    0.0000 </r>
       <r>   20.6882    0.0000 </r>
       <r>   25.7385    0.0000 </r>
       <r>   26.4410    0.0000 </r>
       <r>   26.4410    0.0000 </r>
       <r>   29.1525    0.0000 </r>
       <r>   29.5229    0.0000 </r>
       <r>   29.8784    0.0000 </r>
       <r>   29.9766    0.0000 </r>
       <r>   29.9766    0.0000 </r>
       <r>   34.8661    0.0000 </r>
       <r>   36.0051    0.0000 </r>
      </set>
      <set comment="kpoint 4">
       <r>   -0.9459    1.0000 </r>
       <r>    2.2576    1.0000 </r>
       <r>    2.2576    1.0000 </r>
       <r>    2.4222    1.0000 </r>
       <r>    2.9527    1.0000 </r>
       <r>    2.9582    1.0000 </r>
       <r>    2.9582    1.0000 </r>
       <r>    4.6534    1.0000 </r>
       <r>    5.3169    1.0000 </r>
       <r>    5.3380    1.0000 </r>
       <r>    5.8614    1.0000 </r>
       <r>    5.8873    1.0000 </r>
       <r>    5.8873    1.0000 </r>
       <r>    6.2873    1.0251 </r>
       <r>    6.6954    0.1390 </r>
       <r>    6.9315   -0.0201 </r>
       <r>    7.2294   -0.0000 </r>
       <r>    7.2294   -0.0000 </r>
       <r>    7.4875   -0.0000 </r>
       <r>    7.4875   -0.0000 </r>
       <r>    7.6794   -0.0000 </r>
       <r>   10.0474   -0.0000 </r>
       <r>   10.0474   -0.0000 </r>
       <r>   13.0647    0.0000 </r>
       <r>   17.4291    0.0000 </r>
       <r>   19.2658    0.0000 </r>
       <r>   21.2616    0.0000 </r>
       <r>   21.2616    0.0000 </r>
       <r>   21.9402    0.0000 </r>
       <r>   21.9402    0.0000 </r>
       <r>   22.9350    0.0000 </r>
       <r>   22.9350    0.0000 </r>
       <r>   24.8490    0.0000 </r>
       <r>   28.5663    0.0000 </r>
       <r>   29.7285    0.0000 </r>
       <r>   30.3463    0.0000 </r>
       <r>   31.7081    0.0000 </r>
       <r>   31.7081    0.0000 </r>
       <r>   34.3579    0.0000 </r>
       <r>   36.0894    0.0000 </r>
      </set>
      <set comment="kpoint 5">
       <r>    0.4839    1.0000 </r>
       <r>    1.9720    1.0000 </r>
       <r>    3.0258    1.0000 </r>
       <r>    3.0919    1.0000 </r>
       <r>    3.4437    1.0000 </r>
       <r>    3.4984    1.0000 </r>
       <r>    3.6139    1.0000 </r>
       <r>    4.0961    1.0000 </r>
       <r>    4.4270    1.0000 </r>
       <r>    4.6839    1.0000 </r>
       <r>    5.0563    1.0000 </r>
       <r>    5.2620    1.0000 </r>
       <r>    5.8601    1.0000 </r>
       <r>    6.1163    1.0017 </r>
       <r>    6.4329    0.9971 </r>
       <r>    6.5593    0.6629 </r>
       <r>    6.5792    0.5819 </r>
       <r>    6.7106    0.0987 </r>
       <r>    7.1110   -0.0009 </r>
       <r>    7.4470   -0.0000 </r>
       <r>    7.4796   -0.0000 </r>
       <r>    7.9379   -0.0000 </r>
       <r>   12.2680    0.0000 </r>
       <r>   14.6025    0.0000 </r>
       <r>   15.6442    0.0000 </r>
       <r>   18.7116    0.0000 </r>
       <r>   19.5488    0.0000 </r>
       <r>   20.4275    0.0000 </r>
       <r>   22.7986    0.0000 </r>
       <r>   23.8114    0.0000 </r>
       <r>   24.0402    0.0000 </r>
       <r>   24.2765    0.0000 </r>
       <r>   26.1990    0.0000 </r>
       <r>   26.6520    0.0000 </r>
       <r>   27.0182    0.0000 </r>
       <r>   32.3796    0.0000 </r>
       <r>   32.3934    0.0000 </r>
       <r>   33.4957    0.0000 </r>
       <r>   33.7033    0.0000 </r>
       <r>   36.3647    0.0000 </r>
      </set>
      <set comment="kpoint 6">
       <r>    1.6609    1.0000 </r>
       <r>    2.8756    1.0000 </r>
       <r>    2.8756    1.0000 </r>
       <r>    3.3651    1.0000 </r>
       <r>    3.7716    1.0000 </r>
       <r>    3.8263    1.0000 </r>
       <r>    3.8263    1.0000 </r>
       <r>    4.0311    1.0000 </r>
       <r>    4.2564    1.0000 </r>
       <r>    4.2564    1.0000 </r>
       <r>    4.3633    1.0000 </r>
       <r>    4.8783    1.0000 </r>
       <r>    5.8464    1.0000 </r>
       <r>    6.0298    1.0002 </r>
       <r>    6.1174    1.0017 </r>
       <r>    6.1551    1.0037 </r>
       <r>    6.1551    1.0037 </r>
       <r>    6.7367    0.0436 </r>
       <r>    6.7367    0.0436 </r>
       <r>    6.9836   -0.0101 </r>
       <r>    8.0040   -0.0000 </r>
       <r>    9.5261   -0.0000 </r>
       <r>    9.5261   -0.0000 </r>
       <r>   11.6010   -0.0000 </r>
       <r>   17.8100    0.0000 </r>
       <r>   20.3519    0.0000 </r>
       <r>   20.5673    0.0000 </r>
       <r>   20.5673    0.0000 </r>
       <r>   21.8165    0.0000 </r>
       <r>   21.8165    0.0000 </r>
       <r>   23.1436    0.0000 </r>
       <r>   23.8583    0.0000 </r>
       <r>   28.0929    0.0000 </r>
       <r>   28.0929    0.0000 </r>
       <r>   29.2757    0.0000 </r>
       <r>   30.9247    0.0000 </r>
       <r>   33.2876    0.0000 </r>
       <r>   35.0229    0.0000 </r>
       <r>   35.9022    0.0000 </r>
       <r>   35.9022    0.0000 </r>
      </set>
      <set comment="kpoint 7">
       <r>   -0.4568    1.0000 </r>
       <r>    2.4899    1.0000 </r>
       <r>    2.4899    1.0000 </r>
       <r>    2.4899    1.0000 </r>
       <r>    3.1133    1.0000 </r>
       <r>    3.1133    1.0000 </r>
       <r>    3.1133    1.0000 </r>
       <r>    4.5355    1.0000 </r>
       <r>    5.3191    1.0000 </r>
       <r>    5.3191    1.0000 </r>
       <r>    5.4529    1.0000 </r>
       <r>    5.4529    1.0000 </r>
       <r>    5.4529    1.0000 </r>
       <r>    6.5182    0.8116 </r>
       <r>    6.5182    0.8116 </r>
       <r>    6.5182    0.8116 </r>
       <r>    6.5659    0.6366 </r>
       <r>    6.5659    0.6366 </r>
       <r>    7.6203   -0.0000 </r>
       <r>    7.6203   -0.0000 </r>
       <r>    7.6203   -0.0000 </r>
       <r>   10.8388   -0.0000 </r>
       <r>   10.8388   -0.0000 </r>
       <r>   10.8388   -0.0000 </r>
       <r>   18.4315    0.0000 </r>
       <r>   18.4315    0.0000 </r>
       <r>   18.4315    0.0000 </r>
       <r>   21.8620    0.0000 </r>
       <r>   21.8620    0.0000 </r>
       <r>   21.8620    0.0000 </r>
       <r>   25.6387    0.0000 </r>
       <r>   25.6387    0.0000 </r>
       <r>   25.6387    0.0000 </r>
       <r>   25.6437    0.0000 </r>
       <r>   30.4433    0.0000 </r>
       <r>   30.4433    0.0000 </r>
       <r>   30.4433    0.0000 </r>
       <r>   31.1077    0.0000 </r>
       <r>   34.9315    0.0000 </r>
       <r>   34.9315    0.0000 </r>
      </set>
      <set comment="kpoint 8">
       <r>    0.8295    1.0000 </r>
       <r>    2.1637    1.0000 </r>
       <r>    3.0808    1.0000 </r>
       <r>    3.0808    1.0000 </r>
       <r>    3.5274    1.0000 </r>
       <r>    3.5274    1.0000 </r>
       <r>    3.6556    1.0000 </r>
       <r>    4.2258    1.0000 </r>
       <r>    4.7175    1.0000 </r>
       <r>    4.7175    1.0000 </r>
       <r>    4.8957    1.0000 </r>
       <r>    5.1926    1.0000 </r>
       <r>    5.4692    1.0000 </r>
       <r>    5.9610    1.0000 </r>
       <r>    6.1551    1.0037 </r>
       <r>    6.1551    1.0037 </r>
       <r>    6.6562    0.2673 </r>
       <r>    7.0636   -0.0024 </r>
       <r>    7.4484   -0.0000 </r>
       <r>    7.4906   -0.0000 </r>
       <r>    7.4906   -0.0000 </r>
       <r>    8.1386   -0.0000 </r>
       <r>   12.3647    0.0000 </r>
       <r>   12.3647    0.0000 </r>
       <r>   15.9033    0.0000 </r>
       <r>   15.9033    0.0000 </r>
       <r>   20.2870    0.0000 </r>
       <r>   22.6578    0.0000 </r>
       <r>   22.6578    0.0000 </r>
       <r>   22.7289    0.0000 </r>
       <r>   24.9132    0.0000 </r>
       <r>   24.9132    0.0000 </r>
       <r>   26.5664    0.0000 </r>
       <r>   27.8942    0.0000 </r>
       <r>   29.6562    0.0000 </r>
       <r>   31.1578    0.0000 </r>
       <r>   31.2441    0.0000 </r>
       <r>   33.5208    0.0000 </r>
       <r>   33.5208    0.0000 </r>
       <r>   34.7869    0.0000 </r>
      </set>
      <set comment="kpoint 9">
       <r>    1.6462    1.0000 </r>
       <r>    2.5077    1.0000 </r>
       <r>    2.5077    1.0000 </r>
       <r>    2.8421    1.0000 </r>
       <r>    4.0293    1.0000 </r>
       <r>    4.2116    1.0000 </r>
       <r>    4.2116    1.0000 </r>
       <r>    4.5791    1.0000 </r>
       <r>    4.7449    1.0000 </r>
       <r>    4.7449    1.0000 </r>
       <r>    4.9420    1.0000 </r>
       <r>    4.9862    1.0000 </r>
       <r>    5.2991    1.0000 </r>
       <r>    5.5847    1.0000 </r>
       <r>    5.5847    1.0000 </r>
       <r>    5.6566    1.0000 </r>
       <r>    6.6769    0.1952 </r>
       <r>    7.2104   -0.0001 </r>
       <r>    7.2104   -0.0001 </r>
       <r>    7.3073   -0.0000 </r>
       <r>    7.7750   -0.0000 </r>
       <r>    9.3810   -0.0000 </r>
       <r>    9.3810   -0.0000 </r>
       <r>   11.0980   -0.0000 </r>
       <r>   15.6855    0.0000 </r>
       <r>   17.4917    0.0000 </r>
       <r>   17.4917    0.0000 </r>
       <r>   19.7522    0.0000 </r>
       <r>   23.8742    0.0000 </r>
       <r>   25.6311    0.0000 </r>
       <r>   25.6311    0.0000 </r>
       <r>   27.6784    0.0000 </r>
       <r>   28.5410    0.0000 </r>
       <r>   28.5410    0.0000 </r>
       <r>   29.8538    0.0000 </r>
       <r>   30.8419    0.0000 </r>
       <r>   32.4307    0.0000 </r>
       <r>   33.7256    0.0000 </r>
       <r>   33.7256    0.0000 </r>
       <r>   35.3097    0.0000 </r>
      </set>
      <set comment="kpoint 10">
       <r>    1.7496    1.0000 </r>
       <r>    2.1503    1.0000 </r>
       <r>    2.1503    1.0000 </r>
       <r>    2.1503    1.0000 </r>
       <r>    4.6335    1.0000 </r>
       <r>    4.6335    1.0000 </r>
       <r>    4.6335    1.0000 </r>
       <r>    4.9802    1.0000 </r>
       <r>    4.9802    1.0000 </r>
       <r>    5.1284    1.0000 </r>
       <r>    5.1284    1.0000 </r>
       <r>    5.1284    1.0000 </r>
       <r>    5.7204    1.0000 </r>
       <r>    5.7204    1.0000 </r>
       <r>    5.7204    1.0000 </r>
       <r>    5.8957    1.0000 </r>
       <r>    7.2883   -0.0000 </r>
       <r>    7.2883   -0.0000 </r>
       <r>    7.5156   -0.0000 </r>
       <r>    7.5156   -0.0000 </r>
       <r>    7.5156   -0.0000 </r>
       <r>    8.9474   -0.0000 </r>
       <r>    8.9474   -0.0000 </r>
       <r>    8.9474   -0.0000 </r>
       <r>   15.4659    0.0000 </r>
       <r>   15.4659    0.0000 </r>
       <r>   15.4659    0.0000 </r>
       <r>   17.0394    0.0000 </r>
       <r>   27.8596    0.0000 </r>
       <r>   27.8596    0.0000 </r>
       <r>   27.8596    0.0000 </r>
       <r>   29.1336    0.0000 </r>
       <r>   31.4363    0.0000 </r>
       <r>   31.4363    0.0000 </r>
       <r>   31.4363    0.0000 </r>
       <r>   31.8636    0.0000 </r>
       <r>   31.8636    0.0000 </r>
       <r>   31.8636    0.0000 </r>
       <r>   34.0095    0.0000 </r>
       <r>   34.0095    0.0000 </r>
      </set>
     </set>
    </set>
   </array>
  </eigenvalues>
  <separator name="orbital magnetization" >
   <v name="MAGDIPOLOUT">      0.00000000      0.00000000      0.00000000</v>
  </separator>
  <dos>
   <i name="efermi">      6.59862517 </i>
   <total>
    <array>
     <dimension dim="1">gridpoints</dimension>
     <dimension dim="2">spin</dimension>
     <field>energy</field>
     <field>total</field>
     <field>integrated</field>
     <set>
      <set comment="spin 1">
       <r>    -4.0405     0.0000     0.0000 </r>
       <r>    -3.8992     0.0000     0.0000 </r>
       <r>    -3.7578    -0.0000    -0.0000 </r>
       <r>    -3.6164    -0.0000    -0.0000 </r>
       <r>    -3.4751    -0.0000    -0.0000 </r>
       <r>    -3.3337    -0.0000    -0.0000 </r>
       <r>    -3.1924    -0.0000    -0.0000 </r>
       <r>    -3.0510    -0.0000    -0.0000 </r>
       <r>    -2.9097    -0.0000    -0.0000 </r>
       <r>    -2.7683    -0.0000    -0.0000 </r>
       <r>    -2.6270    -0.0000    -0.0000 </r>
       <r>    -2.4856    -0.0004    -0.0001 </r>
       <r>    -2.3443    -0.0026    -0.0004 </r>
       <r>    -2.2029     0.0038     0.0001 </r>
       <r>    -2.0616     0.0457     0.0066 </r>
       <r>    -1.9202     0.0551     0.0143 </r>
       <r>    -1.7789    -0.0034     0.0139 </r>
       <r>    -1.6375     0.0250     0.0174 </r>
       <r>    -1.4962     0.2832     0.0574 </r>
       <r>    -1.3548     0.3301     0.1041 </r>
       <r>    -1.2135     0.0330     0.1088 </r>
       <r>    -1.0721     0.1180     0.1255 </r>
       <r>    -0.9308     0.6693     0.2201 </r>
       <r>    -0.7894     0.5559     0.2986 </r>
       <r>    -0.6481     0.0581     0.3068 </r>
       <r>    -0.5067     0.2528     0.3426 </r>
       <r>    -0.3654     0.4867     0.4114 </r>
       <r>    -0.2240     0.1534     0.4331 </r>
       <r>    -0.0827     0.0758     0.4438 </r>
       <r>     0.0587     0.3362     0.4913 </r>
       <r>     0.2000     0.1794     0.5167 </r>
       <r>     0.3414     0.1896     0.5435 </r>
       <r>     0.4827     1.1907     0.7118 </r>
       <r>     0.6241     1.2330     0.8861 </r>
       <r>     0.7654     0.9310     1.0177 </r>
       <r>     0.9068     1.4446     1.2219 </r>
       <r>     1.0481     0.6121     1.3084 </r>
       <r>     1.1895    -0.0667     1.2989 </r>
       <r>     1.3308    -0.1415     1.2789 </r>
       <r>     1.4722     0.1307     1.2974 </r>
       <r>     1.6135     1.8205     1.5547 </r>
       <r>     1.7549     2.9076     1.9657 </r>
       <r>     1.8962     2.0151     2.2506 </r>
       <r>     2.0376     2.5117     2.6056 </r>
       <r>     2.1789     4.5516     3.2490 </r>
       <r>     2.3203     4.4656     3.8802 </r>
       <r>     2.4616     4.4778     4.5131 </r>
       <r>     2.6030     4.8276     5.1955 </r>
       <r>     2.7443     3.0178     5.6221 </r>
       <r>     2.8857     5.2555     6.3649 </r>
       <r>     3.0270     8.9094     7.6243 </r>
       <r>     3.1684     8.2614     8.7921 </r>
       <r>     3.3097     3.3331     9.2632 </r>
       <r>     3.4511     4.6035     9.9139 </r>
       <r>     3.5924     8.3344    11.0920 </r>
       <r>     3.7338     5.9740    11.9364 </r>
       <r>     3.8751     2.8661    12.3415 </r>
       <r>     4.0165     3.1915    12.7927 </r>
       <r>     4.1578     6.4977    13.7111 </r>
       <r>     4.2992     7.6199    14.7882 </r>
       <r>     4.4405     4.5481    15.4311 </r>
       <r>     4.5819     5.1704    16.1619 </r>
       <r>     4.7232    10.6875    17.6726 </r>
       <r>     4.8646    10.6912    19.1838 </r>
       <r>     5.0060     7.9523    20.3079 </r>
       <r>     5.1473     7.1720    21.3216 </r>
       <r>     5.2887     7.9614    22.4470 </r>
       <r>     5.4300     7.6798    23.5325 </r>
       <r>     5.5714     6.4262    24.4409 </r>
       <r>     5.7127     6.2382    25.3227 </r>
       <r>     5.8541     7.2471    26.3471 </r>
       <r>     5.9954     8.4171    27.5368 </r>
       <r>     6.1368     8.3009    28.7102 </r>
       <r>     6.2781     6.3475    29.6074 </r>
       <r>     6.4195     4.3668    30.2246 </r>
       <r>     6.5608     9.2318    31.5296 </r>
       <r>     6.7022    11.9557    33.2195 </r>
       <r>     6.8435     6.4534    34.1317 </r>
       <r>     6.9849     2.7571    34.5214 </r>
       <r>     7.1262     5.3690    35.2803 </r>
       <r>     7.2676     8.7774    36.5210 </r>
       <r>     7.4089    10.8696    38.0574 </r>
       <r>     7.5503    12.5208    39.8273 </r>
       <r>     7.6916     7.9153    40.9461 </r>
       <r>     7.8330     4.4836    41.5799 </r>
       <r>     7.9743     4.2723    42.1838 </r>
       <r>     8.1157     3.3270    42.6540 </r>
       <r>     8.2570     1.9015    42.9228 </r>
       <r>     8.3984     0.3953    42.9787 </r>
       <r>     8.5397    -0.1158    42.9623 </r>
       <r>     8.6811    -0.1062    42.9473 </r>
       <r>     8.8224     0.2761    42.9863 </r>
       <r>     8.9638     1.3263    43.1738 </r>
       <r>     9.1051     0.9771    43.3119 </r>
       <r>     9.2465     0.4877    43.3809 </r>
       <r>     9.3878     2.7401    43.7682 </r>
       <r>     9.5292     3.6795    44.2883 </r>
       <r>     9.6705     1.5092    44.5016 </r>
       <r>     9.8119    -0.0381    44.4962 </r>
       <r>     9.9532     0.4519    44.5601 </r>
       <r>    10.0946     1.6550    44.7940 </r>
       <r>    10.2359     1.0005    44.9354 </r>
       <r>    10.3773     0.0045    44.9361 </r>
       <r>    10.5186    -0.1135    44.9200 </r>
       <r>    10.6600     0.0172    44.9225 </r>
       <r>    10.8013     0.8981    45.0494 </r>
       <r>    10.9427     1.5775    45.2724 </r>
       <r>    11.0840     1.5742    45.4949 </r>
       <r>    11.2254     1.2597    45.6730 </r>
       <r>    11.3667     0.2059    45.7021 </r>
       <r>    11.5081     0.1537    45.7238 </r>
       <r>    11.6494     0.7199    45.8256 </r>
       <r>    11.7908     0.8282    45.9426 </r>
       <r>    11.9321     0.6840    46.0393 </r>
       <r>    12.0735     0.1162    46.0557 </r>
       <r>    12.2148     1.0915    46.2100 </r>
       <r>    12.3562     3.8749    46.7578 </r>
       <r>    12.4975     3.1596    47.2044 </r>
       <r>    12.6389     0.4003    47.2609 </r>
       <r>    12.7802    -0.2109    47.2311 </r>
       <r>    12.9216     0.0552    47.2389 </r>
       <r>    13.0629     0.6203    47.3266 </r>
       <r>    13.2043     0.6336    47.4162 </r>
       <r>    13.3457     0.0983    47.4301 </r>
       <r>    13.4870    -0.0355    47.4251 </r>
       <r>    13.6284    -0.0071    47.4240 </r>
       <r>    13.7697    -0.0003    47.4240 </r>
       <r>    13.9111    -0.0000    47.4240 </r>
       <r>    14.0524    -0.0010    47.4239 </r>
       <r>    14.1938    -0.0188    47.4212 </r>
       <r>    14.3351    -0.0868    47.4089 </r>
       <r>    14.4765     0.2403    47.4429 </r>
       <r>    14.6178     1.5863    47.6671 </r>
       <r>    14.7592     1.8830    47.9333 </r>
       <r>    14.9005     0.5691    48.0137 </r>
       <r>    15.0419    -0.0717    48.0036 </r>
       <r>    15.1832    -0.1170    47.9871 </r>
       <r>    15.3246     0.0918    48.0000 </r>
       <r>    15.4659     1.2199    48.1725 </r>
       <r>    15.6073     2.7105    48.5556 </r>
       <r>    15.7486     3.4040    49.0368 </r>
       <r>    15.8900     3.4100    49.5188 </r>
       <r>    16.0313     2.5711    49.8822 </r>
       <r>    16.1727     0.4555    49.9466 </r>
       <r>    16.3140    -0.1514    49.9252 </r>
       <r>    16.4554    -0.0349    49.9202 </r>
       <r>    16.5967    -0.0051    49.9195 </r>
       <r>    16.7381    -0.0214    49.9165 </r>
       <r>    16.8794     0.0330    49.9212 </r>
       <r>    17.0208     0.3524    49.9710 </r>
       <r>    17.1621     0.3186    50.0160 </r>
       <r>    17.3035     0.2507    50.0514 </r>
       <r>    17.4448     2.4010    50.3908 </r>
       <r>    17.5862     3.4813    50.8829 </r>
       <r>    17.7275     1.3459    51.0731 </r>
       <r>    17.8689     1.0720    51.2247 </r>
       <r>    18.0102     1.0428    51.3721 </r>
       <r>    18.1516     0.1268    51.3900 </r>
       <r>    18.2929     0.1253    51.4077 </r>
       <r>    18.4343     1.1419    51.5691 </r>
       <r>    18.5756     1.4233    51.7703 </r>
       <r>    18.7170     2.2513    52.0885 </r>
       <r>    18.8583     2.7960    52.4837 </r>
       <r>    18.9997     0.8726    52.6071 </r>
       <r>    19.1410     0.0302    52.6114 </r>
       <r>    19.2824     0.5444    52.6883 </r>
       <r>    19.4237     0.7899    52.8000 </r>
       <r>    19.5651     1.4235    53.0012 </r>
       <r>    19.7064     1.9973    53.2835 </r>
       <r>    19.8478     1.5764    53.5063 </r>
       <r>    19.9891     0.3225    53.5519 </r>
       <r>    20.1305    -0.0626    53.5431 </r>
       <r>    20.2718     1.4639    53.7500 </r>
       <r>    20.4132     3.3470    54.2231 </r>
       <r>    20.5545     3.2767    54.6863 </r>
       <r>    20.6959     2.1660    54.9924 </r>
       <r>    20.8372     0.6894    55.0899 </r>
       <r>    20.9786    -0.0247    55.0864 </r>
       <r>    21.1199     0.8951    55.2129 </r>
       <r>    21.2613     2.2759    55.5346 </r>
       <r>    21.4026     1.5278    55.7506 </r>
       <r>    21.5440    -0.0098    55.7492 </r>
       <r>    21.6853     0.0922    55.7622 </r>
       <r>    21.8267     2.6816    56.1413 </r>
       <r>    21.9681     4.5841    56.7892 </r>
       <r>    22.1094     2.2854    57.1123 </r>
       <r>    22.2508     0.0507    57.1194 </r>
       <r>    22.3921    -0.3454    57.0706 </r>
       <r>    22.5335     0.4445    57.1334 </r>
       <r>    22.6748     3.7497    57.6635 </r>
       <r>    22.8162     5.4036    58.4273 </r>
       <r>    22.9575     3.3902    58.9065 </r>
       <r>    23.0989     1.8187    59.1635 </r>
       <r>    23.2402     0.9522    59.2981 </r>
       <r>    23.3816     0.1523    59.3197 </r>
       <r>    23.5229    -0.1946    59.2922 </r>
       <r>    23.6643     0.0475    59.2989 </r>
       <r>    23.8056     2.2674    59.6194 </r>
       <r>    23.9470     4.4628    60.2502 </r>
       <r>    24.0883     3.3882    60.7291 </r>
       <r>    24.2297     1.8498    60.9906 </r>
       <r>    24.3710     1.3841    61.1862 </r>
       <r>    24.5124     0.3570    61.2367 </r>
       <r>    24.6537    -0.2213    61.2054 </r>
       <r>    24.7951     1.0292    61.3509 </r>
       <r>    24.9364     3.5377    61.8509 </r>
       <r>    25.0778     2.4332    62.1949 </r>
       <r>    25.2191     0.0832    62.2066 </r>
       <r>    25.3605    -0.3876    62.1518 </r>
       <r>    25.5018     0.7454    62.2572 </r>
       <r>    25.6432     4.4882    62.8916 </r>
       <r>    25.7845     4.3366    63.5046 </r>
       <r>    25.9259     0.6370    63.5946 </r>
       <r>    26.0672    -0.0020    63.5944 </r>
       <r>    26.2086     1.1878    63.7623 </r>
       <r>    26.3499     1.3327    63.9506 </r>
       <r>    26.4913     1.6293    64.1809 </r>
       <r>    26.6326     2.9631    64.5998 </r>
       <r>    26.7740     2.0126    64.8842 </r>
       <r>    26.9153     0.6690    64.9788 </r>
       <r>    27.0567     1.3426    65.1686 </r>
       <r>    27.1980     0.9281    65.2998 </r>
       <r>    27.3394    -0.0186    65.2972 </r>
       <r>    27.4807    -0.1137    65.2811 </r>
       <r>    27.6221     0.6526    65.3733 </r>
       <r>    27.7634     2.1781    65.6812 </r>
       <r>    27.9048     3.3778    66.1587 </r>
       <r>    28.0461     2.8991    66.5685 </r>
       <r>    28.1875     1.5094    66.7818 </r>
       <r>    28.3288     0.2560    66.8180 </r>
       <r>    28.4702     1.5179    67.0325 </r>
       <r>    28.6115     3.7406    67.5613 </r>
       <r>    28.7529     1.7762    67.8123 </r>
       <r>    28.8942    -0.0515    67.8051 </r>
       <r>    29.0356     0.5010    67.8759 </r>
       <r>    29.1769     1.4938    68.0870 </r>
       <r>    29.3183     1.3859    68.2829 </r>
       <r>    29.4596     0.5849    68.3656 </r>
       <r>    29.6010     1.1762    68.5319 </r>
       <r>    29.7423     2.6820    68.9110 </r>
       <r>    29.8837     3.2972    69.3770 </r>
       <r>    30.0250     2.4079    69.7174 </r>
       <r>    30.1664     0.6068    69.8032 </r>
       <r>    30.3077     0.6607    69.8965 </r>
       <r>    30.4491     1.9713    70.1752 </r>
       <r>    30.5905     1.3256    70.3626 </r>
       <r>    30.7318     0.4730    70.4294 </r>
       <r>    30.8732     1.6488    70.6625 </r>
       <r>    31.0145     2.0164    70.9475 </r>
       <r>    31.1559     2.4909    71.2996 </r>
       <r>    31.2972     3.1976    71.7516 </r>
       <r>    31.4386     2.7383    72.1386 </r>
       <r>    31.5799     2.0278    72.4253 </r>
       <r>    31.7213     1.7910    72.6784 </r>
       <r>    31.8626     2.2933    73.0026 </r>
       <r>    32.0040     1.2971    73.1859 </r>
       <r>    32.1453    -0.0785    73.1748 </r>
       <r>    32.2867     0.9951    73.3155 </r>
       <r>    32.4280     4.1580    73.9032 </r>
       <r>    32.5694     3.1319    74.3459 </r>
       <r>    32.7107     0.2486    74.3811 </r>
       <r>    32.8521    -0.1898    74.3543 </r>
       <r>    32.9934    -0.0850    74.3422 </r>
       <r>    33.1348     0.0674    74.3518 </r>
       <r>    33.2761     0.6840    74.4484 </r>
       <r>    33.4175     2.3393    74.7791 </r>
       <r>    33.5588     5.7083    75.5860 </r>
       <r>    33.7002     6.6754    76.5296 </r>
       <r>    33.8415     4.2485    77.1301 </r>
       <r>    33.9829     1.3711    77.3239 </r>
       <r>    34.1242     0.6676    77.4183 </r>
       <r>    34.2656     0.4245    77.4783 </r>
       <r>    34.4069     0.6636    77.5721 </r>
       <r>    34.5483     0.3179    77.6170 </r>
       <r>    34.6896     0.4104    77.6750 </r>
       <r>    34.8310     1.9905    77.9563 </r>
       <r>    34.9723     2.6251    78.3274 </r>
       <r>    35.1137     1.4775    78.5362 </r>
       <r>    35.2550     1.0235    78.6809 </r>
       <r>    35.3964     1.4216    78.8819 </r>
       <r>    35.5377     0.4948    78.9518 </r>
       <r>    35.6791    -0.1353    78.9327 </r>
       <r>    35.8204     0.5249    79.0069 </r>
       <r>    35.9618     1.8496    79.2683 </r>
       <r>    36.1031     1.7432    79.5147 </r>
       <r>    36.2445     0.9828    79.6536 </r>
       <r>    36.3858     1.3833    79.8492 </r>
       <r>    36.5272     1.0544    79.9982 </r>
       <r>    36.6685     0.0856    80.0103 </r>
       <r>    36.8099    -0.0632    80.0014 </r>
       <r>    36.9512    -0.0094    80.0001 </r>
       <r>    37.0926    -0.0004    80.0000 </r>
       <r>    37.2339    -0.0000    80.0000 </r>
       <r>    37.3753    -0.0000    80.0000 </r>
       <r>    37.5166    -0.0000    80.0000 </r>
       <r>    37.6580    -0.0000    80.0000 </r>
       <r>    37.7993     0.0000    80.0000 </r>
       <r>    37.9407     0.0000    80.0000 </r>
       <r>    38.0820     0.0000    80.0000 </r>
       <r>    38.2234     0.0000    80.0000 </r>
       <r>    38.3647     0.0000    80.0000 </r>
      </set>
     </set>
    </array>
   </total>
  </dos>
 </calculation>
 <structure name="finalpos" >
  <crystal>
   <varray name="basis" >
    <v>       3.44508300       0.00000000       0.00000000 </v>
    <v>       0.00000000       3.44508300       0.00000000 </v>
    <v>       0.00000000       0.00000000       3.44508300 </v>
   </varray>
   <i name="volume">     40.88830133 </i>
   <varray name="rec_basis" >
    <v>       0.29026877       0.00000000       0.00000000 </v>
    <v>       0.00000000       0.29026877       0.00000000 </v>
    <v>       0.00000000       0.00000000       0.29026877 </v>
   </varray>
  </crystal>
  <varray name="positions" >
   <v>       0.00000000       0.00000000       0.00000000 </v>
   <v>       0.50000000       0.50000000       0.00000000 </v>
   <v>       0.50000000       0.00000000       0.50000000 </v>
   <v>       0.00000000       0.50000000       0.50000000 </v>
  </varray>
 </structure>
</modeling>
