 vasp.6.2.0 18Jan21 (build Mar 17 2021 09:06:54) complex                        
  
 POSCAR found type information on POSCAR Fe
 POSCAR found :  1 types and       4 ions
 LDA part: xc-table for Pade appr. of Perdew
 POSCAR, INCAR and KPOINTS ok, starting setup
 FFT: planning ...
 WAVECAR not read
 WARNING: chargedensity file is incomplete
 entering main loop
       N       E                     dE             d eps       ncg     rms          rms(c)
DAV:   1     0.110597993792E+03    0.11060E+03   -0.68719E+03   848   0.461E+02
DAV:   2    -0.319633765369E+02   -0.14256E+03   -0.12343E+03   856   0.143E+02
DAV:   3    -0.386250350054E+02   -0.66617E+01   -0.63724E+01   888   0.358E+01
DAV:   4    -0.386607698282E+02   -0.35735E-01   -0.35721E-01   856   0.288E+00
DAV:   5    -0.386609777403E+02   -0.20791E-03   -0.20791E-03   888   0.194E-01    0.287E+01
DAV:   6    -0.315038818008E+02    0.71571E+01   -0.14071E+01   832   0.405E+01    0.289E+00
DAV:   7    -0.312452633898E+02    0.25862E+00   -0.82695E-01   864   0.821E+00    0.133E+00
DAV:   8    -0.312168918967E+02    0.28371E-01   -0.67440E-03   936   0.467E-01    0.791E-01
DAV:   9    -0.311980605594E+02    0.18831E-01   -0.40456E-03   848   0.334E-01    0.379E-02
DAV:  10    -0.311979644480E+02    0.96111E-04   -0.18852E-04   896   0.648E-02    0.357E-02
DAV:  11    -0.311978692743E+02    0.95174E-04   -0.21484E-06   832   0.926E-03    0.923E-03
DAV:  12    -0.311978545250E+02    0.14749E-04   -0.46993E-07   480   0.377E-03    0.148E-03
DAV:  13    -0.311978557114E+02   -0.11864E-05   -0.31011E-08   432   0.915E-04    0.489E-04
DAV:  14    -0.311978558869E+02   -0.17547E-06   -0.16445E-09   424   0.200E-04
   1 F= -.31197856E+02 E0= -.31179992E+02  d E =-.535912E-01
 writing wavefunctions
