unknown system                          
   1.00000000000000     
     3.866000    0.000000    0.000000
     0.000000    3.866000    0.000000
     0.000000    0.000000    3.866000
   Pd   Ir   Pt   Cu
     1     1     1     1
Direct
  0.000000  0.000000  0.000000
  0.500000  0.500000  0.000000
  0.500000  0.000000  0.500000
  0.000000  0.500000  0.500000
 
   20   20   20
  226.91      203.53      150.51      99.722      68.109      51.386      35.797      18.069      9.0502      10.025    
  12.205      10.025      9.0502      18.069      35.797      51.386      68.109      99.722      150.51      203.53    
  205.26      184.41      137.45      92.932      65.157      49.545      33.963      16.917      8.3495      9.0110    
  10.889      9.0110      8.3495      16.917      33.963      49.545      65.157      92.932      137.45      184.41    
  155.07      140.43      108.03      77.920      58.408      44.962      29.849      15.515      9.0086      9.6357    
  11.060      9.6357      9.0086      15.515      29.849      44.962      58.408      77.920      108.03      140.43    
  104.60      96.697      79.445      63.170      50.788      39.202      26.540      17.688      15.487      17.536    
  19.017      17.536      15.487      17.688      26.540      39.202      50.788      63.170      79.445      96.697    
  70.636      67.172      59.367      50.968      42.551      33.439      26.511      24.653      27.370      31.513    
  33.433      31.513      27.370      24.653      26.511      33.439      42.551      50.968      59.367      67.172    
  51.292      49.324      44.527      38.728      33.159      29.799      30.032      33.814      39.841      45.520    
  47.877      45.520      39.841      33.814      30.032      29.799      33.159      38.728      44.527      49.324    
  34.439      32.533      28.351      25.255      25.778      29.883      35.898      42.642      49.534      55.419    
  57.860      55.419      49.534      42.642      35.898      29.883      25.778      25.255      28.351      32.533    
  16.959      15.613      13.859      16.010      23.593      33.736      43.134      50.434      56.653      62.118    
  64.511      62.118      56.653      50.434      43.134      33.736      23.593      16.010      13.859      15.613    
  9.1952      8.1581      8.0512      13.982      26.220      39.959      50.986      58.344      64.484      70.407    
  73.142      70.407      64.484      58.344      50.986      39.959      26.220      13.982      8.0512      8.1581    
  11.449      10.015      9.5786      16.450      30.418      45.817      57.856      65.924      73.218      80.612    
  84.058      80.612      73.218      65.924      57.856      45.817      30.418      16.450      9.5786      10.015    
  14.145      12.388      11.399      18.139      32.380      48.245      60.724      69.308      77.383      85.630    
  89.460      85.630      77.383      69.308      60.724      48.245      32.380      18.139      11.399      12.388    
  11.449      10.015      9.5786      16.450      30.418      45.817      57.856      65.924      73.218      80.612    
  84.058      80.612      73.218      65.924      57.856      45.817      30.418      16.450      9.5786      10.015    
  9.1952      8.1581      8.0512      13.982      26.220      39.959      50.986      58.344      64.484      70.407    
  73.142      70.407      64.484      58.344      50.986      39.959      26.220      13.982      8.0512      8.1581    
  16.959      15.613      13.859      16.010      23.593      33.736      43.134      50.434      56.653      62.118    
  64.511      62.118      56.653      50.434      43.134      33.736      23.593      16.010      13.859      15.613    
  34.439      32.533      28.351      25.255      25.778      29.883      35.898      42.642      49.534      55.419    
  57.860      55.419      49.534      42.642      35.898      29.883      25.778      25.255      28.351      32.533    
  51.292      49.324      44.527      38.728      33.159      29.799      30.032      33.814      39.841      45.520    
  47.877      45.520      39.841      33.814      30.032      29.799      33.159      38.728      44.527      49.324    
  70.636      67.172      59.367      50.968      42.551      33.439      26.511      24.653      27.370      31.513    
  33.433      31.513      27.370      24.653      26.511      33.439      42.551      50.968      59.367      67.172    
  104.60      96.697      79.445      63.170      50.788      39.202      26.540      17.688      15.487      17.536    
  19.017      17.536      15.487      17.688      26.540      39.202      50.788      63.170      79.445      96.697    
  155.07      140.43      108.03      77.920      58.408      44.962      29.849      15.515      9.0086      9.6357    
  11.060      9.6357      9.0086      15.515      29.849      44.962      58.408      77.920      108.03      140.43    
  205.26      184.41      137.45      92.932      65.157      49.545      33.963      16.917      8.3495      9.0110    
  10.889      9.0110      8.3495      16.917      33.963      49.545      65.157      92.932      137.45      184.41    
  205.51      185.03      138.58      93.957      65.646      49.635      33.879      16.753      8.1528      8.7888    
  10.654      8.7888      8.1528      16.753      33.879      49.635      65.646      93.957      138.58      185.03    
  186.45      168.21      127.12      87.998      63.003      47.918      32.198      15.773      7.6175      7.9882    
  9.5878      7.9882      7.6175      15.773      32.198      47.918      63.003      87.998      127.12      168.21    
  142.25      129.49      101.18      74.580      56.683      43.436      28.358      14.664      8.4895      8.8765    
  10.082      8.8765      8.4895      14.664      28.358      43.436      56.683      74.580      101.18      129.49    
  97.839      90.902      75.623      60.814      48.937      37.367      25.107      16.854      14.801      16.556    
  17.832      16.556      14.801      16.854      25.107      37.367      48.937      60.814      75.623      90.902    
  67.909      64.698      57.269      48.869      40.190      31.153      24.835      23.508      26.240      30.001    
  31.692      30.001      26.240      23.508      24.835      31.153      40.190      48.869      57.269      64.698    
  50.447      48.446      43.381      36.929      30.789      27.394      28.092      32.319      38.298      43.534    
  45.630      43.534      38.298      32.319      28.092      27.394      30.789      36.929      43.381      48.446    
  34.167      32.341      28.158      24.605      24.328      27.883      33.923      40.957      47.830      53.303    
  55.484      53.303      47.830      40.957      33.923      27.883      24.328      24.605      28.158      32.341    
  17.015      15.998      14.734      16.684      23.276      32.393      41.365      48.762      54.940      59.999    
  62.131      59.999      54.940      48.762      41.365      32.393      23.276      16.684      14.734      15.998    
  8.4734      7.9914      8.8759      15.044      26.497      39.090      49.448      56.667      62.570      67.939    
  70.354      67.939      62.570      56.667      49.448      39.090      26.497      15.044      8.8759      7.9914    
  9.0343      8.3495      9.3778      17.031      30.656      45.086      56.397      64.104      70.874      77.472    
  80.501      77.472      70.874      64.104      56.397      45.086      30.656      17.031      9.3778      8.3495    
  10.829      9.9011      10.585      18.364      32.491      47.508      59.261      67.391      74.800      82.129    
  85.495      82.129      74.800      67.391      59.261      47.508      32.491      18.364      10.585      9.9011    
  9.0343      8.3495      9.3778      17.031      30.656      45.086      56.397      64.104      70.874      77.472    
  80.501      77.472      70.874      64.104      56.397      45.086      30.656      17.031      9.3778      8.3495    
  8.4734      7.9914      8.8759      15.044      26.497      39.090      49.448      56.667      62.570      67.939    
  70.354      67.939      62.570      56.667      49.448      39.090      26.497      15.044      8.8759      7.9914    
  17.015      15.998      14.734      16.684      23.276      32.393      41.365      48.762      54.940      59.999    
  62.131      59.999      54.940      48.762      41.365      32.393      23.276      16.684      14.734      15.998    
  34.167      32.341      28.158      24.605      24.328      27.883      33.923      40.957      47.830      53.303    
  55.484      53.303      47.830      40.957      33.923      27.883      24.328      24.605      28.158      32.341    
  50.447      48.446      43.381      36.929      30.789      27.394      28.092      32.319      38.298      43.534    
  45.630      43.534      38.298      32.319      28.092      27.394      30.789      36.929      43.381      48.446    
  67.909      64.698      57.269      48.869      40.190      31.153      24.835      23.508      26.240      30.001    
  31.692      30.001      26.240      23.508      24.835      31.153      40.190      48.869      57.269      64.698    
  97.839      90.902      75.623      60.814      48.937      37.367      25.107      16.854      14.801      16.556    
  17.832      16.556      14.801      16.854      25.107      37.367      48.937      60.814      75.623      90.902    
  142.25      129.49      101.18      74.580      56.683      43.436      28.358      14.664      8.4895      8.8765    
  10.082      8.8765      8.4895      14.664      28.358      43.436      56.683      74.580      101.18      129.49    
  186.45      168.21      127.12      87.998      63.003      47.918      32.198      15.773      7.6175      7.9882    
  9.5878      7.9882      7.6175      15.773      32.198      47.918      63.003      87.998      127.12      168.21    
  155.13      141.48      110.48      80.145      59.343      44.983      29.523      15.178      8.7808      9.4556    
  10.879      9.4556      8.7808      15.178      29.523      44.983      59.343      80.145      110.48      141.48    
  142.17      130.05      102.66      75.934      57.219      43.395      28.110      14.460      8.4123      8.8674    
  10.084      8.8674      8.4123      14.460      28.110      43.395      57.219      75.934      102.66      130.05    
  112.18      103.70      84.682      65.952      51.601      38.893      24.741      13.648      9.1712      9.5978    
  10.500      9.5978      9.1712      13.648      24.741      38.893      51.601      65.952      84.682      103.70    
  82.024      77.216      66.243      54.542      43.662      32.230      21.552      15.357      14.233      15.720    
  16.676      15.720      14.233      15.357      21.552      32.230      43.662      54.542      66.243      77.216    
  61.186      58.518      51.888      43.463      34.171      25.554      20.763      20.756      23.758      26.963    
  28.277      26.963      23.758      20.756      20.763      25.554      34.171      43.463      51.888      58.518    
  47.223      45.194      39.708      32.210      25.313      21.985      23.468      28.420      34.311      38.831    
  40.506      38.831      34.311      28.420      23.468      21.985      25.313      32.210      39.708      45.194    
  31.680      30.120      26.265      22.314      20.875      23.404      29.221      36.513      43.313      48.166    
  49.955      48.166      43.313      36.513      29.221      23.404      20.875      22.314      26.265      30.120    
  15.964      15.556      15.239      16.934      21.806      29.035      37.024      44.436      50.586      55.064    
  56.799      55.064      50.586      44.436      37.024      29.035      21.806      16.934      15.239      15.556    
  7.2465      7.5746      9.8002      15.962      25.799      36.339      45.481      52.478      58.039      62.487    
  64.350      62.487      58.039      52.478      45.481      36.339      25.799      15.962      9.8002      7.5746    
  5.7243      6.0290      8.8284      17.005      29.615      42.338      52.491      59.682      65.539      70.639    
  72.871      70.639      65.539      59.682      52.491      42.338      29.615      17.005      8.8284      6.0290    
  6.2472      6.3941      9.0657      17.664      31.114      44.650      55.302      62.767      68.971      74.509    
  76.956      74.509      68.971      62.767      55.302      44.650      31.114      17.664      9.0657      6.3941    
  5.7243      6.0290      8.8284      17.005      29.615      42.338      52.491      59.682      65.539      70.639    
  72.871      70.639      65.539      59.682      52.491      42.338      29.615      17.005      8.8284      6.0290    
  7.2465      7.5746      9.8002      15.962      25.799      36.339      45.481      52.478      58.039      62.487    
  64.350      62.487      58.039      52.478      45.481      36.339      25.799      15.962      9.8002      7.5746    
  15.964      15.556      15.239      16.934      21.806      29.035      37.024      44.436      50.586      55.064    
  56.799      55.064      50.586      44.436      37.024      29.035      21.806      16.934      15.239      15.556    
  31.680      30.120      26.265      22.314      20.875      23.404      29.221      36.513      43.313      48.166    
  49.955      48.166      43.313      36.513      29.221      23.404      20.875      22.314      26.265      30.120    
  47.223      45.194      39.708      32.210      25.313      21.985      23.468      28.420      34.311      38.831    
  40.506      38.831      34.311      28.420      23.468      21.985      25.313      32.210      39.708      45.194    
  61.186      58.518      51.888      43.463      34.171      25.554      20.763      20.756      23.758      26.963    
  28.277      26.963      23.758      20.756      20.763      25.554      34.171      43.463      51.888      58.518    
  82.024      77.216      66.243      54.542      43.662      32.230      21.552      15.357      14.233      15.720    
  16.676      15.720      14.233      15.357      21.552      32.230      43.662      54.542      66.243      77.216    
  112.18      103.70      84.682      65.952      51.601      38.893      24.741      13.648      9.1712      9.5978    
  10.500      9.5978      9.1712      13.648      24.741      38.893      51.601      65.952      84.682      103.70    
  142.17      130.05      102.66      75.934      57.219      43.395      28.110      14.460      8.4123      8.8674    
  10.084      8.8674      8.4123      14.460      28.110      43.395      57.219      75.934      102.66      130.05    
  103.68      96.889      81.185      64.718      51.097      38.765      26.167      18.005      16.498      18.858    
  20.389      18.858      16.498      18.005      26.167      38.765      51.097      64.718      81.185      96.889    
  96.990      90.910      76.833      61.889      49.071      36.929      24.778      17.193      15.816      17.903    
  19.248      17.903      15.816      17.193      24.778      36.929      49.071      61.889      76.833      90.910    
  81.507      77.052      66.577      54.831      43.571      31.909      21.392      15.696      15.076      16.845    
  17.875      16.845      15.076      15.696      21.392      31.909      43.571      54.831      66.577      77.052    
  65.532      62.573      55.227      45.949      35.706      25.266      17.956      15.545      16.802      19.039    
  20.048      19.039      16.802      15.545      17.956      25.266      35.706      45.949      55.227      62.573    
  52.714      50.515      44.600      36.225      26.856      19.508      16.635      18.227      22.086      25.551    
  26.886      25.551      22.086      18.227      16.635      19.508      26.856      36.225      44.600      50.515    
  40.307      38.364      33.063      26.052      19.911      17.140      18.751      23.650      29.481      34.003    
  35.689      34.003      29.481      23.650      18.751      17.140      19.911      26.052      33.063      38.364    
  25.459      24.249      21.283      18.277      17.204      19.265      24.196      30.696      37.205      42.083    
  43.914      42.083      37.205      30.696      24.196      19.265      17.204      18.277      21.283      24.249    
  13.693      13.378      13.165      14.598      18.661      24.867      31.825      38.673      44.751      49.255    
  50.981      49.255      44.751      38.673      31.825      24.867      18.661      14.598      13.165      13.378    
  9.1161      9.0334      10.001      14.221      22.152      31.531      40.052      46.971      52.496      56.616    
  58.250      56.616      52.496      46.971      40.052      31.531      22.152      14.221      10.001      9.0334    
  9.9206      9.4567      10.033      15.120      25.229      36.787      46.682      54.002      59.524      63.714    
  65.422      63.714      59.524      54.002      46.682      36.787      25.229      15.120      10.033      9.4567    
  11.067      10.334      10.474      15.618      26.398      38.775      49.281      56.886      62.554      66.889    
  68.672      66.889      62.554      56.886      49.281      38.775      26.398      15.618      10.474      10.334    
  9.9206      9.4567      10.033      15.120      25.229      36.787      46.682      54.002      59.524      63.714    
  65.422      63.714      59.524      54.002      46.682      36.787      25.229      15.120      10.033      9.4567    
  9.1161      9.0334      10.001      14.221      22.152      31.531      40.052      46.971      52.496      56.616    
  58.250      56.616      52.496      46.971      40.052      31.531      22.152      14.221      10.001      9.0334    
  13.693      13.378      13.165      14.598      18.661      24.867      31.825      38.673      44.751      49.255    
  50.981      49.255      44.751      38.673      31.825      24.867      18.661      14.598      13.165      13.378    
  25.459      24.249      21.283      18.277      17.204      19.265      24.196      30.696      37.205      42.083    
  43.914      42.083      37.205      30.696      24.196      19.265      17.204      18.277      21.283      24.249    
  40.307      38.364      33.063      26.052      19.911      17.140      18.751      23.650      29.481      34.003    
  35.689      34.003      29.481      23.650      18.751      17.140      19.911      26.052      33.063      38.364    
  52.714      50.515      44.600      36.225      26.856      19.508      16.635      18.227      22.086      25.551    
  26.886      25.551      22.086      18.227      16.635      19.508      26.856      36.225      44.600      50.515    
  65.532      62.573      55.227      45.949      35.706      25.266      17.956      15.545      16.802      19.039    
  20.048      19.039      16.802      15.545      17.956      25.266      35.706      45.949      55.227      62.573    
  81.507      77.052      66.577      54.831      43.571      31.909      21.392      15.696      15.076      16.845    
  17.875      16.845      15.076      15.696      21.392      31.909      43.571      54.831      66.577      77.052    
  96.990      90.910      76.833      61.889      49.071      36.929      24.778      17.193      15.816      17.903    
  19.248      17.903      15.816      17.193      24.778      36.929      49.071      61.889      76.833      90.910    
  69.252      66.469      59.567      50.981      41.898      32.827      27.209      27.277      31.300      35.665    
  37.473      35.665      31.300      27.277      27.209      32.827      41.898      50.981      59.567      66.469    
  66.684      64.032      57.344      48.790      39.551      30.568      25.474      25.967      30.007      34.113    
  35.762      34.113      30.007      25.967      25.474      30.568      39.551      48.790      57.344      64.032    
  60.374      58.009      51.783      43.266      33.626      25.102      21.290      22.762      26.946      30.669    
  32.075      30.669      26.946      22.762      21.290      25.102      33.626      43.266      51.783      58.009    
  52.366      50.266      44.482      36.060      26.551      19.314      17.022      19.480      24.088      27.961    
  29.408      27.961      24.088      19.480      17.022      19.314      26.551      36.060      44.482      50.266    
  42.601      40.664      35.293      27.818      20.445      15.621      14.914      18.140      23.405      28.051    
  29.878      28.051      23.405      18.140      14.914      15.621      20.445      27.818      35.293      40.664    
  30.153      28.535      24.500      19.872      16.327      14.867      16.052      20.005      25.795      31.119    
  33.299      31.119      25.795      20.005      16.052      14.867      16.327      19.872      24.500      28.535    
  19.315      18.159      15.737      14.121      14.514      16.733      20.263      25.039      30.851      36.131    
  38.322      36.131      30.851      25.039      20.263      16.733      14.514      14.121      15.737      18.159    
  15.639      14.446      12.300      12.024      15.069      20.515      26.509      32.253      37.842      42.462    
  44.332      42.462      37.842      32.253      26.509      20.515      15.069      12.024      12.300      14.446    
  19.875      17.968      14.380      13.414      17.479      25.202      33.324      40.197      45.678      49.620    
  51.135      49.620      45.678      40.197      33.324      25.202      17.479      13.414      14.380      17.968    
  27.102      24.272      18.664      16.164      20.241      29.210      38.833      46.700      52.374      56.071    
  57.430      56.071      52.374      46.700      38.833      29.210      20.241      16.164      18.664      24.272    
  30.549      27.300      20.760      17.504      21.458      30.810      40.987      49.269      55.101      58.798    
  60.138      58.798      55.101      49.269      40.987      30.810      21.458      17.504      20.760      27.300    
  27.102      24.272      18.664      16.164      20.241      29.210      38.833      46.700      52.374      56.071    
  57.430      56.071      52.374      46.700      38.833      29.210      20.241      16.164      18.664      24.272    
  19.875      17.968      14.380      13.414      17.479      25.202      33.324      40.197      45.678      49.620    
  51.135      49.620      45.678      40.197      33.324      25.202      17.479      13.414      14.380      17.968    
  15.639      14.446      12.300      12.024      15.069      20.515      26.509      32.253      37.842      42.462    
  44.332      42.462      37.842      32.253      26.509      20.515      15.069      12.024      12.300      14.446    
  19.315      18.159      15.737      14.121      14.514      16.733      20.263      25.039      30.851      36.131    
  38.322      36.131      30.851      25.039      20.263      16.733      14.514      14.121      15.737      18.159    
  30.153      28.535      24.500      19.872      16.327      14.867      16.052      20.005      25.795      31.119    
  33.299      31.119      25.795      20.005      16.052      14.867      16.327      19.872      24.500      28.535    
  42.601      40.664      35.293      27.818      20.445      15.621      14.914      18.140      23.405      28.051    
  29.878      28.051      23.405      18.140      14.914      15.621      20.445      27.818      35.293      40.664    
  52.366      50.266      44.482      36.060      26.551      19.314      17.022      19.480      24.088      27.961    
  29.408      27.961      24.088      19.480      17.022      19.314      26.551      36.060      44.482      50.266    
  60.374      58.009      51.783      43.266      33.626      25.102      21.290      22.762      26.946      30.669    
  32.075      30.669      26.946      22.762      21.290      25.102      33.626      43.266      51.783      58.009    
  66.684      64.032      57.344      48.790      39.551      30.568      25.474      25.967      30.007      34.113    
  35.762      34.113      30.007      25.967      25.474      30.568      39.551      48.790      57.344      64.032    
  50.145      48.413      43.849      37.842      32.281      30.344      33.515      39.951      46.779      51.717    
  53.490      51.717      46.779      39.951      33.515      30.344      32.281      37.842      43.849      48.413    
  49.401      47.605      42.741      36.099      29.965      27.891      31.351      38.190      45.091      49.809    
  51.434      49.809      45.091      38.190      31.351      27.891      29.965      36.099      42.741      47.605    
  46.428      44.539      39.188      31.538      24.650      22.375      26.124      33.485      40.561      45.080    
  46.555      45.080      40.561      33.485      26.124      22.375      24.650      31.538      39.188      44.539    
  39.811      37.946      32.718      25.610      19.486      17.417      20.583      27.328      34.456      39.431    
  41.171      39.431      34.456      27.328      20.583      17.417      19.486      25.610      32.718      37.946    
  29.933      28.345      24.336      19.670      16.147      15.029      16.977      21.902      28.520      34.321    
  36.641      34.321      28.520      21.902      16.977      15.029      16.147      19.670      24.336      28.345    
  21.704      20.307      17.317      14.963      14.230      14.642      16.048      19.412      25.126      31.090    
  33.686      31.090      25.126      19.412      16.048      14.642      14.230      14.963      17.317      20.307    
  20.871      19.107      15.468      13.065      13.273      15.122      17.537      20.935      25.892      30.974    
  33.197      30.974      25.892      20.935      17.537      15.122      13.273      13.065      15.468      19.107    
  29.099      26.426      20.435      15.358      14.092      16.546      20.928      25.772      30.426      34.145    
  35.621      34.145      30.426      25.772      20.928      16.546      14.092      15.358      20.435      26.426    
  42.565      38.881      30.083      21.361      17.349      19.389      25.371      31.891      36.832      39.639    
  40.519      39.639      36.832      31.891      25.371      19.389      17.349      21.361      30.083      38.881    
  54.540      50.157      39.360      27.875      21.500      22.682      29.302      36.936      42.421      45.035    
  45.698      45.035      42.421      36.936      29.302      22.682      21.500      27.875      39.360      50.157    
  59.262      54.643      43.161      30.698      23.427      24.184      30.897      38.891      44.648      47.317    
  47.963      47.317      44.648      38.891      30.897      24.184      23.427      30.698      43.161      54.643    
  54.540      50.157      39.360      27.875      21.500      22.682      29.302      36.936      42.421      45.035    
  45.698      45.035      42.421      36.936      29.302      22.682      21.500      27.875      39.360      50.157    
  42.565      38.881      30.083      21.361      17.349      19.389      25.371      31.891      36.832      39.639    
  40.519      39.639      36.832      31.891      25.371      19.389      17.349      21.361      30.083      38.881    
  29.099      26.426      20.435      15.358      14.092      16.546      20.928      25.772      30.426      34.145    
  35.621      34.145      30.426      25.772      20.928      16.546      14.092      15.358      20.435      26.426    
  20.871      19.107      15.468      13.065      13.273      15.122      17.537      20.935      25.892      30.974    
  33.197      30.974      25.892      20.935      17.537      15.122      13.273      13.065      15.468      19.107    
  21.704      20.307      17.317      14.963      14.230      14.642      16.048      19.412      25.126      31.090    
  33.686      31.090      25.126      19.412      16.048      14.642      14.230      14.963      17.317      20.307    
  29.933      28.345      24.336      19.670      16.147      15.029      16.977      21.902      28.520      34.321    
  36.641      34.321      28.520      21.902      16.977      15.029      16.147      19.670      24.336      28.345    
  39.811      37.946      32.718      25.610      19.486      17.417      20.583      27.328      34.456      39.431    
  41.171      39.431      34.456      27.328      20.583      17.417      19.486      25.610      32.718      37.946    
  46.428      44.539      39.188      31.538      24.650      22.375      26.124      33.485      40.561      45.080    
  46.555      45.080      40.561      33.485      26.124      22.375      24.650      31.538      39.188      44.539    
  49.401      47.605      42.741      36.099      29.965      27.891      31.351      38.190      45.091      49.809    
  51.434      49.809      45.091      38.190      31.351      27.891      29.965      36.099      42.741      47.605    
  33.576      31.673      27.404      24.321      25.899      32.920      42.666      52.275      59.901      64.745    
  66.429      64.745      59.901      52.275      42.666      32.920      25.899      24.321      27.404      31.673    
  33.349      31.528      27.263      23.713      24.411      30.717      40.369      50.179      57.834      62.417    
  63.925      62.417      57.834      50.179      40.369      30.717      24.411      23.713      27.263      31.528    