unknown system                          
   1.00000000000000     
     3.866000    0.000000    0.000000
     0.000000    3.866000    0.000000
     0.000000    0.000000    3.866000
   Pd   Ir   Pt   Cu
     1     1     1     1
Direct
  0.000000  0.000000  0.000000
  0.500000  0.500000  0.000000
  0.500000  0.000000  0.500000
  0.000000  0.500000  0.500000
 
   20   20   20
 0.22690718450E+03 0.20353085391E+03 0.15051070651E+03 0.99722348977E+02 0.68108722650E+02
 0.51386246530E+02 0.35796700499E+02 0.18069377781E+02 0.90501878832E+01 0.10025069873E+02
 0.12204841178E+02 0.10025069873E+02 0.90501878832E+01 0.18069377781E+02 0.35796700499E+02
 0.51386246530E+02 0.68108722650E+02 0.99722348977E+02 0.15051070651E+03 0.20353085391E+03
 0.20526232042E+03 0.18441080938E+03 0.13745032092E+03 0.92931869758E+02 0.65157030191E+02
 0.49544564115E+02 0.33962805674E+02 0.16916587397E+02 0.83495057584E+01 0.90109513246E+01
 0.10888686489E+02 0.90109513246E+01 0.83495057584E+01 0.16916587397E+02 0.33962805674E+02
 0.49544564115E+02 0.65157030191E+02 0.92931869758E+02 0.13745032092E+03 0.18441080938E+03
 0.15506534370E+03 0.14042730968E+03 0.10802998509E+03 0.77919895835E+02 0.58408098064E+02
 0.44962050953E+02 0.29849493538E+02 0.15515238731E+02 0.90086167701E+01 0.96357207103E+01
 0.11059936799E+02 0.96357207103E+01 0.90086167701E+01 0.15515238731E+02 0.29849493538E+02
 0.44962050953E+02 0.58408098064E+02 0.77919895835E+02 0.10802998509E+03 0.14042730968E+03
 0.10459682658E+03 0.96697007587E+02 0.79445203948E+02 0.63169613930E+02 0.50787728933E+02
 0.39201654032E+02 0.26540216782E+02 0.17688175762E+02 0.15486602930E+02 0.17536141265E+02
 0.19016687353E+02 0.17536141265E+02 0.15486602930E+02 0.17688175762E+02 0.26540216782E+02
 0.39201654032E+02 0.50787728933E+02 0.63169613930E+02 0.79445203948E+02 0.96697007587E+02
 0.70635894301E+02 0.67172195253E+02 0.59367106516E+02 0.50967572035E+02 0.42551051594E+02
 0.33439308383E+02 0.26511165216E+02 0.24653333024E+02 0.27370000863E+02 0.31513098750E+02
 0.33432889279E+02 0.31513098750E+02 0.27370000863E+02 0.24653333024E+02 0.26511165216E+02
 0.33439308383E+02 0.42551051594E+02 0.50967572035E+02 0.59367106516E+02 0.67172195253E+02
 0.51291530338E+02 0.49323525070E+02 0.44527124625E+02 0.38727807738E+02 0.33158554516E+02
 0.29799257686E+02 0.30032331101E+02 0.33813598928E+02 0.39841246835E+02 0.45520077239E+02
 0.47876532198E+02 0.45520077239E+02 0.39841246835E+02 0.33813598928E+02 0.30032331101E+02
 0.29799257686E+02 0.33158554516E+02 0.38727807738E+02 0.44527124625E+02 0.49323525070E+02
 0.34439278546E+02 0.32532515710E+02 0.28351364409E+02 0.25255123143E+02 0.25778093388E+02
 0.29882555592E+02 0.35898037047E+02 0.42641637350E+02 0.49534359212E+02 0.55419367145E+02
 0.57859773426E+02 0.55419367145E+02 0.49534359212E+02 0.42641637350E+02 0.35898037047E+02
 0.29882555592E+02 0.25778093388E+02 0.25255123143E+02 0.28351364409E+02 0.32532515710E+02
 0.16959400488E+02 0.15613230762E+02 0.13858733307E+02 0.16010277157E+02 0.23592589440E+02
 0.33736073331E+02 0.43133640484E+02 0.50433619141E+02 0.56652898513E+02 0.62117705517E+02
 0.64510898496E+02 0.62117705517E+02 0.56652898513E+02 0.50433619141E+02 0.43133640484E+02
 0.33736073331E+02 0.23592589440E+02 0.16010277157E+02 0.13858733307E+02 0.15613230762E+02
 0.91951763254E+01 0.81580984732E+01 0.80512446439E+01 0.13982218287E+02 0.26220497366E+02
 0.39959069769E+02 0.50986209169E+02 0.58344460745E+02 0.64484366173E+02 0.70406584183E+02
 0.73141723598E+02 0.70406584183E+02 0.64484366173E+02 0.58344460745E+02 0.50986209169E+02
 0.39959069769E+02 0.26220497366E+02 0.13982218287E+02 0.80512446439E+01 0.81580984732E+01
 0.11448758387E+02 0.10015494853E+02 0.95786473559E+01 0.16450416571E+02 0.30418317921E+02
 0.45817289341E+02 0.57855922114E+02 0.65924002226E+02 0.73217942110E+02 0.80612157572E+02
 0.84057900421E+02 0.80612157572E+02 0.73217942110E+02 0.65924002226E+02 0.57855922114E+02
 0.45817289341E+02 0.30418317921E+02 0.16450416571E+02 0.95786473559E+01 0.10015494853E+02
 0.14145232351E+02 0.12387840093E+02 0.11399208036E+02 0.18139110825E+02 0.32379664873E+02
 0.48245027122E+02 0.60723774596E+02 0.69308150837E+02 0.77382717913E+02 0.85629615281E+02
 0.89460264744E+02 0.85629615281E+02 0.77382717913E+02 0.69308150837E+02 0.60723774596E+02
 0.48245027122E+02 0.32379664873E+02 0.18139110825E+02 0.11399208036E+02 0.12387840093E+02
 0.11448758387E+02 0.10015494853E+02 0.95786473559E+01 0.16450416571E+02 0.30418317921E+02
 0.45817289341E+02 0.57855922114E+02 0.65924002226E+02 0.73217942110E+02 0.80612157572E+02
 0.84057900421E+02 0.80612157572E+02 0.73217942110E+02 0.65924002226E+02 0.57855922114E+02
 0.45817289341E+02 0.30418317921E+02 0.16450416571E+02 0.95786473559E+01 0.10015494853E+02
 0.91951763254E+01 0.81580984732E+01 0.80512446439E+01 0.13982218287E+02 0.26220497366E+02
 0.39959069769E+02 0.50986209169E+02 0.58344460745E+02 0.64484366173E+02 0.70406584183E+02
 0.73141723598E+02 0.70406584183E+02 0.64484366173E+02 0.58344460745E+02 0.50986209169E+02
 0.39959069769E+02 0.26220497366E+02 0.13982218287E+02 0.80512446439E+01 0.81580984732E+01
 0.16959400488E+02 0.15613230762E+02 0.13858733307E+02 0.16010277157E+02 0.23592589440E+02
 0.33736073331E+02 0.43133640484E+02 0.50433619141E+02 0.56652898513E+02 0.62117705517E+02
 0.64510898496E+02 0.62117705517E+02 0.56652898513E+02 0.50433619141E+02 0.43133640484E+02
 0.33736073331E+02 0.23592589440E+02 0.16010277157E+02 0.13858733307E+02 0.15613230762E+02
 0.34439278546E+02 0.32532515710E+02 0.28351364409E+02 0.25255123143E+02 0.25778093388E+02
 0.29882555592E+02 0.35898037047E+02 0.42641637350E+02 0.49534359212E+02 0.55419367145E+02
 0.57859773426E+02 0.55419367145E+02 0.49534359212E+02 0.42641637350E+02 0.35898037047E+02
 0.29882555592E+02 0.25778093388E+02 0.25255123143E+02 0.28351364409E+02 0.32532515710E+02
 0.51291530338E+02 0.49323525070E+02 0.44527124625E+02 0.38727807738E+02 0.33158554516E+02
 0.29799257686E+02 0.30032331101E+02 0.33813598928E+02 0.39841246835E+02 0.45520077239E+02
 0.47876532198E+02 0.45520077239E+02 0.39841246835E+02 0.33813598928E+02 0.30032331101E+02
 0.29799257686E+02 0.33158554516E+02 0.38727807738E+02 0.44527124625E+02 0.49323525070E+02
 0.70635894301E+02 0.67172195253E+02 0.59367106516E+02 0.50967572035E+02 0.42551051594E+02
 0.33439308383E+02 0.26511165216E+02 0.24653333024E+02 0.27370000863E+02 0.31513098750E+02
 0.33432889279E+02 0.31513098750E+02 0.27370000863E+02 0.24653333024E+02 0.26511165216E+02
 0.33439308383E+02 0.42551051594E+02 0.50967572035E+02 0.59367106516E+02 0.67172195253E+02
 0.10459682658E+03 0.96697007587E+02 0.79445203948E+02 0.63169613930E+02 0.50787728933E+02
 0.39201654032E+02 0.26540216782E+02 0.17688175762E+02 0.15486602930E+02 0.17536141265E+02
 0.19016687353E+02 0.17536141265E+02 0.15486602930E+02 0.17688175762E+02 0.26540216782E+02
 0.39201654032E+02 0.50787728933E+02 0.63169613930E+02 0.79445203948E+02 0.96697007587E+02
 0.15506534370E+03 0.14042730968E+03 0.10802998509E+03 0.77919895835E+02 0.58408098064E+02
 0.44962050953E+02 0.29849493538E+02 0.15515238731E+02 0.90086167701E+01 0.96357207103E+01
 0.11059936799E+02 0.96357207103E+01 0.90086167701E+01 0.15515238731E+02 0.29849493538E+02
 0.44962050953E+02 0.58408098064E+02 0.77919895835E+02 0.10802998509E+03 0.14042730968E+03
 0.20526232042E+03 0.18441080938E+03 0.13745032092E+03 0.92931869758E+02 0.65157030191E+02
 0.49544564115E+02 0.33962805674E+02 0.16916587397E+02 0.83495057584E+01 0.90109513246E+01
 0.10888686489E+02 0.90109513246E+01 0.83495057584E+01 0.16916587397E+02 0.33962805674E+02
 0.49544564115E+02 0.65157030191E+02 0.92931869758E+02 0.13745032092E+03 0.18441080938E+03
 0.20551393285E+03 0.18502828915E+03 0.13858084683E+03 0.93956654657E+02 0.65645772250E+02
 0.49635431220E+02 0.33879093360E+02 0.16753255586E+02 0.81528033291E+01 0.87887858778E+01
 0.10653828087E+02 0.87887858778E+01 0.81528033291E+01 0.16753255586E+02 0.33879093360E+02
 0.49635431220E+02 0.65645772250E+02 0.93956654657E+02 0.13858084683E+03 0.18502828915E+03
 0.18644921528E+03 0.16820832181E+03 0.12712328959E+03 0.87997553882E+02 0.63003228838E+02
 0.47918255788E+02 0.32197725295E+02 0.15773470322E+02 0.76175183933E+01 0.79882024383E+01
 0.95877534229E+01 0.79882024383E+01 0.76175183933E+01 0.15773470322E+02 0.32197725295E+02
 0.47918255788E+02 0.63003228838E+02 0.87997553882E+02 0.12712328959E+03 0.16820832181E+03
 0.14225211119E+03 0.12948603295E+03 0.10117508186E+03 0.74579755574E+02 0.56682626907E+02
 0.43436288404E+02 0.28357813370E+02 0.14664198347E+02 0.84895110144E+01 0.88765261438E+01
 0.10081927768E+02 0.88765261438E+01 0.84895110144E+01 0.14664198347E+02 0.28357813370E+02
 0.43436288404E+02 0.56682626907E+02 0.74579755574E+02 0.10117508186E+03 0.12948603295E+03
 0.97838735259E+02 0.90902331549E+02 0.75623446268E+02 0.60813895555E+02 0.48937175006E+02
 0.37367281563E+02 0.25107388110E+02 0.16854345881E+02 0.14801049404E+02 0.16555907759E+02
 0.17831864990E+02 0.16555907759E+02 0.14801049404E+02 0.16854345881E+02 0.25107388110E+02
 0.37367281563E+02 0.48937175006E+02 0.60813895555E+02 0.75623446268E+02 0.90902331549E+02
 0.67908882796E+02 0.64698281138E+02 0.57269069034E+02 0.48868853700E+02 0.40190449787E+02
 0.31153205299E+02 0.24834915037E+02 0.23508222910E+02 0.26239877348E+02 0.30001119513E+02
 0.31691781638E+02 0.30001119513E+02 0.26239877348E+02 0.23508222910E+02 0.24834915037E+02
 0.31153205299E+02 0.40190449787E+02 0.48868853700E+02 0.57269069034E+02 0.64698281138E+02
 0.50446669055E+02 0.48445696355E+02 0.43380654936E+02 0.36929368795E+02 0.30788761302E+02
 0.27393841192E+02 0.28091655934E+02 0.32318717591E+02 0.38297637312E+02 0.43533884101E+02
 0.45629987531E+02 0.43533884101E+02 0.38297637312E+02 0.32318717591E+02 0.28091655934E+02
 0.27393841192E+02 0.30788761302E+02 0.36929368795E+02 0.43380654936E+02 0.48445696355E+02
 0.34166785050E+02 0.32341323989E+02 0.28157811405E+02 0.24605394068E+02 0.24328188954E+02
 0.27882974292E+02 0.33922502409E+02 0.40956731624E+02 0.47829591358E+02 0.53302892463E+02
 0.55484441533E+02 0.53302892463E+02 0.47829591358E+02 0.40956731624E+02 0.33922502409E+02
 0.27882974292E+02 0.24328188954E+02 0.24605394068E+02 0.28157811405E+02 0.32341323989E+02
 0.17014690646E+02 0.15998194828E+02 0.14734234091E+02 0.16683852966E+02 0.23275812524E+02
 0.32393080635E+02 0.41365253625E+02 0.48762242888E+02 0.54940166588E+02 0.59999202636E+02
 0.62130743424E+02 0.59999202636E+02 0.54940166588E+02 0.48762242888E+02 0.41365253625E+02
 0.32393080635E+02 0.23275812524E+02 0.16683852966E+02 0.14734234091E+02 0.15998194828E+02
 0.84734410705E+01 0.79914317839E+01 0.88759427708E+01 0.15044351081E+02 0.26496805131E+02
 0.39090389801E+02 0.49447789954E+02 0.56667152373E+02 0.62570394465E+02 0.67939242627E+02
 0.70353859625E+02 0.67939242627E+02 0.62570394465E+02 0.56667152373E+02 0.49447789954E+02
 0.39090389801E+02 0.26496805131E+02 0.15044351081E+02 0.88759427708E+01 0.79914317839E+01
 0.90343251669E+01 0.83495342992E+01 0.93777542635E+01 0.17031344910E+02 0.30656369959E+02
 0.45086147793E+02 0.56396590244E+02 0.64104289652E+02 0.70873802399E+02 0.77471519369E+02
 0.80500987218E+02 0.77471519369E+02 0.70873802399E+02 0.64104289652E+02 0.56396590244E+02
 0.45086147793E+02 0.30656369959E+02 0.17031344910E+02 0.93777542635E+01 0.83495342992E+01
 0.10828609914E+02 0.99011454220E+01 0.10584591319E+02 0.18363869664E+02 0.32490885219E+02
 0.47508006121E+02 0.59260884729E+02 0.67390545070E+02 0.74800461433E+02 0.82128782965E+02
 0.85494949869E+02 0.82128782965E+02 0.74800461433E+02 0.67390545070E+02 0.59260884729E+02
 0.47508006121E+02 0.32490885219E+02 0.18363869664E+02 0.10584591319E+02 0.99011454220E+01
 0.90343251669E+01 0.83495342992E+01 0.93777542635E+01 0.17031344910E+02 0.30656369959E+02
 0.45086147793E+02 0.56396590244E+02 0.64104289652E+02 0.70873802399E+02 0.77471519369E+02
 0.80500987218E+02 0.77471519369E+02 0.70873802399E+02 0.64104289652E+02 0.56396590244E+02
 0.45086147793E+02 0.30656369959E+02 0.17031344910E+02 0.93777542635E+01 0.83495342992E+01
 0.84734410705E+01 0.79914317839E+01 0.88759427708E+01 0.15044351081E+02 0.26496805131E+02
 0.39090389801E+02 0.49447789954E+02 0.56667152373E+02 0.62570394465E+02 0.67939242627E+02
 0.70353859625E+02 0.67939242627E+02 0.62570394465E+02 0.56667152373E+02 0.49447789954E+02
 0.39090389801E+02 0.26496805131E+02 0.15044351081E+02 0.88759427708E+01 0.79914317839E+01
 0.17014690646E+02 0.15998194828E+02 0.14734234091E+02 0.16683852966E+02 0.23275812524E+02
 0.32393080635E+02 0.41365253625E+02 0.48762242888E+02 0.54940166588E+02 0.59999202636E+02
 0.62130743424E+02 0.59999202636E+02 0.54940166588E+02 0.48762242888E+02 0.41365253625E+02
 0.32393080635E+02 0.23275812524E+02 0.16683852966E+02 0.14734234091E+02 0.15998194828E+02
 0.34166785050E+02 0.32341323989E+02 0.28157811405E+02 0.24605394068E+02 0.24328188954E+02
 0.27882974292E+02 0.33922502409E+02 0.40956731624E+02 0.47829591358E+02 0.53302892463E+02
 0.55484441533E+02 0.53302892463E+02 0.47829591358E+02 0.40956731624E+02 0.33922502409E+02
 0.27882974292E+02 0.24328188954E+02 0.24605394068E+02 0.28157811405E+02 0.32341323989E+02
 0.50446669055E+02 0.48445696355E+02 0.43380654936E+02 0.36929368795E+02 0.30788761302E+02
 0.27393841192E+02 0.28091655934E+02 0.32318717591E+02 0.38297637312E+02 0.43533884101E+02
 0.45629987531E+02 0.43533884101E+02 0.38297637312E+02 0.32318717591E+02 0.28091655934E+02
 0.27393841192E+02 0.30788761302E+02 0.36929368795E+02 0.43380654936E+02 0.48445696355E+02
 0.67908882796E+02 0.64698281138E+02 0.57269069034E+02 0.48868853700E+02 0.40190449787E+02
 0.31153205299E+02 0.24834915037E+02 0.23508222910E+02 0.26239877348E+02 0.30001119513E+02
 0.31691781638E+02 0.30001119513E+02 0.26239877348E+02 0.23508222910E+02 0.24834915037E+02
 0.31153205299E+02 0.40190449787E+02 0.48868853700E+02 0.57269069034E+02 0.64698281138E+02
 0.97838735259E+02 0.90902331549E+02 0.75623446268E+02 0.60813895555E+02 0.48937175006E+02
 0.37367281563E+02 0.25107388110E+02 0.16854345881E+02 0.14801049404E+02 0.16555907759E+02
 0.17831864990E+02 0.16555907759E+02 0.14801049404E+02 0.16854345881E+02 0.25107388110E+02
 0.37367281563E+02 0.48937175006E+02 0.60813895555E+02 0.75623446268E+02 0.90902331549E+02
 0.14225211119E+03 0.12948603295E+03 0.10117508186E+03 0.74579755574E+02 0.56682626907E+02
 0.43436288404E+02 0.28357813370E+02 0.14664198347E+02 0.84895110144E+01 0.88765261438E+01
 0.10081927768E+02 0.88765261438E+01 0.84895110144E+01 0.14664198347E+02 0.28357813370E+02
 0.43436288404E+02 0.56682626907E+02 0.74579755574E+02 0.10117508186E+03 0.12948603295E+03
 0.18644921528E+03 0.16820832181E+03 0.12712328959E+03 0.87997553882E+02 0.63003228838E+02
 0.47918255788E+02 0.32197725295E+02 0.15773470322E+02 0.76175183933E+01 0.79882024383E+01
 0.95877534229E+01 0.79882024383E+01 0.76175183933E+01 0.15773470322E+02 0.32197725295E+02
 0.47918255788E+02 0.63003228838E+02 0.87997553882E+02 0.12712328959E+03 0.16820832181E+03
 0.15513474385E+03 0.14148282370E+03 0.11047547627E+03 0.80145483446E+02 0.59343233641E+02
 0.44982800769E+02 0.29522711038E+02 0.15177611244E+02 0.87808352332E+01 0.94556273372E+01
 0.10878948234E+02 0.94556273372E+01 0.87808352332E+01 0.15177611244E+02 0.29522711038E+02
 0.44982800769E+02 0.59343233641E+02 0.80145483446E+02 0.11047547627E+03 0.14148282370E+03
 0.14217334489E+03 0.13005485759E+03 0.10265895642E+03 0.75933962509E+02 0.57218665167E+02
 0.43395211642E+02 0.28109877511E+02 0.14459501764E+02 0.84123122335E+01 0.88674090270E+01
 0.10084154831E+02 0.88674090270E+01 0.84123122335E+01 0.14459501764E+02 0.28109877511E+02
 0.43395211642E+02 0.57218665167E+02 0.75933962509E+02 0.10265895642E+03 0.13005485759E+03
 0.11218057944E+03 0.10370353446E+03 0.84681576268E+02 0.65951536176E+02 0.51600835380E+02
 0.38892626994E+02 0.24741417240E+02 0.13647646548E+02 0.91712070221E+01 0.95977847881E+01
 0.10500052458E+02 0.95977847881E+01 0.91712070221E+01 0.13647646548E+02 0.24741417240E+02
 0.38892626994E+02 0.51600835380E+02 0.65951536176E+02 0.84681576268E+02 0.10370353446E+03
 0.82024145386E+02 0.77215920101E+02 0.66243010921E+02 0.54541773876E+02 0.43661586415E+02
 0.32229967108E+02 0.21551570697E+02 0.15357038380E+02 0.14232500611E+02 0.15720262790E+02
 0.16675818402E+02 0.15720262790E+02 0.14232500611E+02 0.15357038380E+02 0.21551570697E+02
 0.32229967108E+02 0.43661586415E+02 0.54541773876E+02 0.66243010921E+02 0.77215920101E+02
 0.61185918325E+02 0.58518432525E+02 0.51888032795E+02 0.43463212256E+02 0.34171302659E+02
 0.25553856261E+02 0.20763173746E+02 0.20756455935E+02 0.23758202887E+02 0.26962655566E+02
 0.28277485743E+02 0.26962655566E+02 0.23758202887E+02 0.20756455935E+02 0.20763173746E+02
 0.25553856261E+02 0.34171302659E+02 0.43463212256E+02 0.51888032795E+02 0.58518432525E+02
 0.47222517063E+02 0.45194410847E+02 0.39707773822E+02 0.32210426396E+02 0.25312978255E+02
 0.21984982597E+02 0.23467969768E+02 0.28419818258E+02 0.34311262689E+02 0.38830722543E+02
 0.40505628712E+02 0.38830722543E+02 0.34311262689E+02 0.28419818258E+02 0.23467969768E+02
 0.21984982597E+02 0.25312978255E+02 0.32210426396E+02 0.39707773822E+02 0.45194410847E+02
 0.31679948960E+02 0.30119937758E+02 0.26264549900E+02 0.22314218792E+02 0.20874977577E+02
 0.23403615970E+02 0.29221491487E+02 0.36513367212E+02 0.43312643395E+02 0.48166001269E+02
 0.49955413602E+02 0.48166001269E+02 0.43312643395E+02 0.36513367212E+02 0.29221491487E+02
 0.23403615970E+02 0.20874977577E+02 0.22314218792E+02 0.26264549900E+02 0.30119937758E+02
 0.15964416953E+02 0.15555924525E+02 0.15238888556E+02 0.16934207925E+02 0.21806346223E+02
 0.29034819137E+02 0.37023988188E+02 0.44436024096E+02 0.50585624735E+02 0.55063600882E+02
 0.56798918610E+02 0.55063600882E+02 0.50585624735E+02 0.44436024096E+02 0.37023988188E+02
 0.29034819137E+02 0.21806346223E+02 0.16934207925E+02 0.15238888556E+02 0.15555924525E+02
 0.72465165476E+01 0.75745983552E+01 0.98001814874E+01 0.15961579059E+02 0.25798677915E+02
 0.36339044237E+02 0.45481239408E+02 0.52477865424E+02 0.58039365895E+02 0.62487485774E+02
 0.64350365282E+02 0.62487485774E+02 0.58039365895E+02 0.52477865424E+02 0.45481239408E+02
 0.36339044237E+02 0.25798677915E+02 0.15961579059E+02 0.98001814874E+01 0.75745983552E+01
 0.57243393306E+01 0.60289881730E+01 0.88284466920E+01 0.17004874545E+02 0.29614956306E+02
 0.42337874966E+02 0.52491101663E+02 0.59681815044E+02 0.65539381720E+02 0.70638546643E+02
 0.72870761685E+02 0.70638546643E+02 0.65539381720E+02 0.59681815044E+02 0.52491101663E+02
 0.42337874966E+02 0.29614956306E+02 0.17004874545E+02 0.88284466920E+01 0.60289881730E+01
 0.62472243029E+01 0.63941241514E+01 0.90657088018E+01 0.17664342149E+02 0.31114116483E+02
 0.44649639607E+02 0.55301728017E+02 0.62767187898E+02 0.68971157748E+02 0.74509102263E+02
 0.76955963917E+02 0.74509102263E+02 0.68971157748E+02 0.62767187898E+02 0.55301728017E+02
 0.44649639607E+02 0.31114116483E+02 0.17664342149E+02 0.90657088018E+01 0.63941241514E+01
 0.57243393306E+01 0.60289881730E+01 0.88284466920E+01 0.17004874545E+02 0.29614956306E+02
 0.42337874966E+02 0.52491101663E+02 0.59681815044E+02 0.65539381720E+02 0.70638546643E+02
 0.72870761685E+02 0.70638546643E+02 0.65539381720E+02 0.59681815044E+02 0.52491101663E+02
 0.42337874966E+02 0.29614956306E+02 0.17004874545E+02 0.88284466920E+01 0.60289881730E+01
 0.72465165476E+01 0.75745983552E+01 0.98001814874E+01 0.15961579059E+02 0.25798677915E+02
 0.36339044237E+02 0.45481239408E+02 0.52477865424E+02 0.58039365895E+02 0.62487485774E+02
 0.64350365282E+02 0.62487485774E+02 0.58039365895E+02 0.52477865424E+02 0.45481239408E+02
 0.36339044237E+02 0.25798677915E+02 0.15961579059E+02 0.98001814874E+01 0.75745983552E+01
 0.15964416953E+02 0.15555924525E+02 0.15238888556E+02 0.16934207925E+02 0.21806346223E+02
 0.29034819137E+02 0.37023988188E+02 0.44436024096E+02 0.50585624735E+02 0.55063600882E+02
 0.56798918610E+02 0.55063600882E+02 0.50585624735E+02 0.44436024096E+02 0.37023988188E+02
 0.29034819137E+02 0.21806346223E+02 0.16934207925E+02 0.15238888556E+02 0.15555924525E+02
 0.31679948960E+02 0.30119937758E+02 0.26264549900E+02 0.22314218792E+02 0.20874977577E+02
 0.23403615970E+02 0.29221491487E+02 0.36513367212E+02 0.43312643395E+02 0.48166001269E+02
 0.49955413602E+02 0.48166001269E+02 0.43312643395E+02 0.36513367212E+02 0.29221491487E+02
 0.23403615970E+02 0.20874977577E+02 0.22314218792E+02 0.26264549900E+02 0.30119937758E+02
 0.47222517063E+02 0.45194410847E+02 0.39707773822E+02 0.32210426396E+02 0.25312978255E+02
 0.21984982597E+02 0.23467969768E+02 0.28419818258E+02 0.34311262689E+02 0.38830722543E+02
 0.40505628712E+02 0.38830722543E+02 0.34311262689E+02 0.28419818258E+02 0.23467969768E+02
 0.21984982597E+02 0.25312978255E+02 0.32210426396E+02 0.39707773822E+02 0.45194410847E+02
 0.61185918325E+02 0.58518432525E+02 0.51888032795E+02 0.43463212256E+02 0.34171302659E+02
 0.25553856261E+02 0.20763173746E+02 0.20756455935E+02 0.23758202887E+02 0.26962655566E+02
 0.28277485743E+02 0.26962655566E+02 0.23758202887E+02 0.20756455935E+02 0.20763173746E+02
 0.25553856261E+02 0.34171302659E+02 0.43463212256E+02 0.51888032795E+02 0.58518432525E+02
 0.82024145386E+02 0.77215920101E+02 0.66243010921E+02 0.54541773876E+02 0.43661586415E+02
 0.32229967108E+02 0.21551570697E+02 0.15357038380E+02 0.14232500611E+02 0.15720262790E+02
 0.16675818402E+02 0.15720262790E+02 0.14232500611E+02 0.15357038380E+02 0.21551570697E+02
 0.32229967108E+02 0.43661586415E+02 0.54541773876E+02 0.66243010921E+02 0.77215920101E+02
 0.11218057944E+03 0.10370353446E+03 0.84681576268E+02 0.65951536176E+02 0.51600835380E+02
 0.38892626994E+02 0.24741417240E+02 0.13647646548E+02 0.91712070221E+01 0.95977847881E+01
 0.10500052458E+02 0.95977847881E+01 0.91712070221E+01 0.13647646548E+02 0.24741417240E+02
 0.38892626994E+02 0.51600835380E+02 0.65951536176E+02 0.84681576268E+02 0.10370353446E+03
 0.14217334489E+03 0.13005485759E+03 0.10265895642E+03 0.75933962509E+02 0.57218665167E+02
 0.43395211642E+02 0.28109877511E+02 0.14459501764E+02 0.84123122335E+01 0.88674090270E+01
 0.10084154831E+02 0.88674090270E+01 0.84123122335E+01 0.14459501764E+02 0.28109877511E+02
 0.43395211642E+02 0.57218665167E+02 0.75933962509E+02 0.10265895642E+03 0.13005485759E+03
 0.10368407849E+03 0.96889068077E+02 0.81184874906E+02 0.64717867591E+02 0.51097341057E+02
 0.38764795403E+02 0.26166839493E+02 0.18005442863E+02 0.16498086297E+02 0.18857974182E+02
 0.20388872330E+02 0.18857974182E+02 0.16498086297E+02 0.18005442863E+02 0.26166839493E+02
 0.38764795403E+02 0.51097341057E+02 0.64717867591E+02 0.81184874906E+02 0.96889068077E+02
 0.96989903274E+02 0.90909670258E+02 0.76832757621E+02 0.61888714243E+02 0.49070538950E+02
 0.36928862941E+02 0.24778481075E+02 0.17192654793E+02 0.15816376270E+02 0.17903465409E+02
 0.19248344068E+02 0.17903465409E+02 0.15816376270E+02 0.17192654793E+02 0.24778481075E+02
 0.36928862941E+02 0.49070538950E+02 0.61888714243E+02 0.76832757621E+02 0.90909670258E+02
 0.81507111090E+02 0.77052075393E+02 0.66577190271E+02 0.54830998671E+02 0.43570613521E+02
 0.31908653853E+02 0.21391588040E+02 0.15695588541E+02 0.15075621156E+02 0.16844991125E+02
 0.17875250253E+02 0.16844991125E+02 0.15075621156E+02 0.15695588541E+02 0.21391588040E+02
 0.31908653853E+02 0.43570613521E+02 0.54830998671E+02 0.66577190271E+02 0.77052075393E+02
 0.65532166398E+02 0.62572770312E+02 0.55227002256E+02 0.45948875540E+02 0.35706499934E+02
 0.25266099935E+02 0.17956477961E+02 0.15545346502E+02 0.16802361607E+02 0.19038780186E+02
 0.20047534181E+02 0.19038780186E+02 0.16802361607E+02 0.15545346502E+02 0.17956477961E+02
 0.25266099935E+02 0.35706499934E+02 0.45948875540E+02 0.55227002256E+02 0.62572770312E+02
 0.52714468403E+02 0.50514907015E+02 0.44599636986E+02 0.36224568677E+02 0.26856310004E+02
 0.19507522805E+02 0.16634760349E+02 0.18227152049E+02 0.22085818616E+02 0.25550507154E+02
 0.26885569372E+02 0.25550507154E+02 0.22085818616E+02 0.18227152049E+02 0.16634760349E+02
 0.19507522805E+02 0.26856310004E+02 0.36224568677E+02 0.44599636986E+02 0.50514907015E+02
 0.40306597308E+02 0.38364465695E+02 0.33063013824E+02 0.26051889309E+02 0.19910947989E+02
 0.17140174960E+02 0.18750506043E+02 0.23649524302E+02 0.29480764868E+02 0.34002815774E+02
 0.35689114946E+02 0.34002815774E+02 0.29480764868E+02 0.23649524302E+02 0.18750506043E+02
 0.17140174960E+02 0.19910947989E+02 0.26051889309E+02 0.33063013824E+02 0.38364465695E+02
 0.25458919193E+02 0.24249081778E+02 0.21283484476E+02 0.18276702189E+02 0.17204047510E+02
 0.19265345953E+02 0.24196455146E+02 0.30695686196E+02 0.37204925124E+02 0.42083236890E+02
 0.43913570290E+02 0.42083236890E+02 0.37204925124E+02 0.30695686196E+02 0.24196455146E+02
 0.19265345953E+02 0.17204047510E+02 0.18276702189E+02 0.21283484476E+02 0.24249081778E+02
 0.13693397152E+02 0.13378230772E+02 0.13164761282E+02 0.14597959493E+02 0.18661054203E+02
 0.24867354076E+02 0.31825319958E+02 0.38673333047E+02 0.44750657366E+02 0.49254518884E+02
 0.50980691697E+02 0.49254518884E+02 0.44750657366E+02 0.38673333047E+02 0.31825319958E+02
 0.24867354076E+02 0.18661054203E+02 0.14597959493E+02 0.13164761282E+02 0.13378230772E+02
 0.91161167862E+01 0.90334031325E+01 0.10001103901E+02 0.14221384736E+02 0.22152180100E+02
 0.31530680988E+02 0.40052332909E+02 0.46971473527E+02 0.52495563913E+02 0.56616278718E+02
 0.58250347789E+02 0.56616278718E+02 0.52495563913E+02 0.46971473527E+02 0.40052332909E+02
 0.31530680988E+02 0.22152180100E+02 0.14221384736E+02 0.10001103901E+02 0.90334031325E+01
 0.99206391728E+01 0.94566750128E+01 0.10032552256E+02 0.15120163013E+02 0.25228759453E+02
 0.36786577625E+02 0.46682463551E+02 0.54002213954E+02 0.59524349631E+02 0.63713798525E+02
 0.65421996676E+02 0.63713798525E+02 0.59524349631E+02 0.54002213954E+02 0.46682463551E+02
 0.36786577625E+02 0.25228759453E+02 0.15120163013E+02 0.10032552256E+02 0.94566750128E+01
 0.11067304590E+02 0.10333956139E+02 0.10474430331E+02 0.15618203995E+02 0.26398460139E+02
 0.38775067148E+02 0.49280904557E+02 0.56885926876E+02 0.62554147891E+02 0.66888843371E+02
 0.68671622934E+02 0.66888843371E+02 0.62554147891E+02 0.56885926876E+02 0.49280904557E+02
 0.38775067148E+02 0.26398460139E+02 0.15618203995E+02 0.10474430331E+02 0.10333956139E+02
 0.99206391728E+01 0.94566750128E+01 0.10032552256E+02 0.15120163013E+02 0.25228759453E+02
 0.36786577625E+02 0.46682463551E+02 0.54002213954E+02 0.59524349631E+02 0.63713798525E+02
 0.65421996676E+02 0.63713798525E+02 0.59524349631E+02 0.54002213954E+02 0.46682463551E+02
 0.36786577625E+02 0.25228759453E+02 0.15120163013E+02 0.10032552256E+02 0.94566750128E+01
 0.91161167862E+01 0.90334031325E+01 0.10001103901E+02 0.14221384736E+02 0.22152180100E+02
 0.31530680988E+02 0.40052332909E+02 0.46971473527E+02 0.52495563913E+02 0.56616278718E+02
 0.58250347789E+02 0.56616278718E+02 0.52495563913E+02 0.46971473527E+02 0.40052332909E+02
 0.31530680988E+02 0.22152180100E+02 0.14221384736E+02 0.10001103901E+02 0.90334031325E+01
 0.13693397152E+02 0.13378230772E+02 0.13164761282E+02 0.14597959493E+02 0.18661054203E+02
 0.24867354076E+02 0.31825319958E+02 0.38673333047E+02 0.44750657366E+02 0.49254518884E+02
 0.50980691697E+02 0.49254518884E+02 0.44750657366E+02 0.38673333047E+02 0.31825319958E+02
 0.24867354076E+02 0.18661054203E+02 0.14597959493E+02 0.13164761282E+02 0.13378230772E+02
 0.25458919193E+02 0.24249081778E+02 0.21283484476E+02 0.18276702189E+02 0.17204047510E+02
 0.19265345953E+02 0.24196455146E+02 0.30695686196E+02 0.37204925124E+02 0.42083236890E+02
 0.43913570290E+02 0.42083236890E+02 0.37204925124E+02 0.30695686196E+02 0.24196455146E+02
 0.19265345953E+02 0.17204047510E+02 0.18276702189E+02 0.21283484476E+02 0.24249081778E+02
 0.40306597308E+02 0.38364465695E+02 0.33063013824E+02 0.26051889309E+02 0.19910947989E+02
 0.17140174960E+02 0.18750506043E+02 0.23649524302E+02 0.29480764868E+02 0.34002815774E+02
 0.35689114946E+02 0.34002815774E+02 0.29480764868E+02 0.23649524302E+02 0.18750506043E+02
 0.17140174960E+02 0.19910947989E+02 0.26051889309E+02 0.33063013824E+02 0.38364465695E+02
 0.52714468403E+02 0.50514907015E+02 0.44599636986E+02 0.36224568677E+02 0.26856310004E+02
 0.19507522805E+02 0.16634760349E+02 0.18227152049E+02 0.22085818616E+02 0.25550507154E+02
 0.26885569372E+02 0.25550507154E+02 0.22085818616E+02 0.18227152049E+02 0.16634760349E+02
 0.19507522805E+02 0.26856310004E+02 0.36224568677E+02 0.44599636986E+02 0.50514907015E+02
 0.65532166398E+02 0.62572770312E+02 0.55227002256E+02 0.45948875540E+02 0.35706499934E+02
 0.25266099935E+02 0.17956477961E+02 0.15545346502E+02 0.16802361607E+02 0.19038780186E+02
 0.20047534181E+02 0.19038780186E+02 0.16802361607E+02 0.15545346502E+02 0.17956477961E+02
 0.25266099935E+02 0.35706499934E+02 0.45948875540E+02 0.55227002256E+02 0.62572770312E+02
 0.81507111090E+02 0.77052075393E+02 0.66577190271E+02 0.54830998671E+02 0.43570613521E+02
 0.31908653853E+02 0.21391588040E+02 0.15695588541E+02 0.15075621156E+02 0.16844991125E+02
 0.17875250253E+02 0.16844991125E+02 0.15075621156E+02 0.15695588541E+02 0.21391588040E+02
 0.31908653853E+02 0.43570613521E+02 0.54830998671E+02 0.66577190271E+02 0.77052075393E+02
 0.96989903274E+02 0.90909670258E+02 0.76832757621E+02 0.61888714243E+02 0.49070538950E+02
 0.36928862941E+02 0.24778481075E+02 0.17192654793E+02 0.15816376270E+02 0.17903465409E+02
 0.19248344068E+02 0.17903465409E+02 0.15816376270E+02 0.17192654793E+02 0.24778481075E+02
 0.36928862941E+02 0.49070538950E+02 0.61888714243E+02 0.76832757621E+02 0.90909670258E+02
 0.69252011444E+02 0.66469374364E+02 0.59566811174E+02 0.50980743838E+02 0.41898393211E+02
 0.32826912083E+02 0.27208633520E+02 0.27276947775E+02 0.31299862863E+02 0.35664852491E+02
 0.37473435838E+02 0.35664852491E+02 0.31299862863E+02 0.27276947775E+02 0.27208633520E+02
 0.32826912083E+02 0.41898393211E+02 0.50980743838E+02 0.59566811174E+02 0.66469374364E+02
 0.66684203062E+02 0.64031649171E+02 0.57343638808E+02 0.48790016938E+02 0.39550548332E+02