   4   4   0   0
  0.1444527E+02  0.3866000E-09  0.3866000E-09  0.3866000E-09  0.5000000E-15
  1.000000000000000E-004
  CAR 
 unknown system                          
     26.56108304     -9.20116619  301     11.83068481      1.00000000
     -9.201  0.0000E+00  0.0000E+00
     -9.082  0.0000E+00  0.0000E+00
     -8.963  0.0000E+00  0.0000E+00
     -8.844 -0.6427E-29 -0.7662E-30
     -8.724 -0.7454E-25 -0.8886E-26
     -8.605 -0.4221E-21 -0.5033E-22
     -8.486 -0.1166E-17 -0.1391E-18
     -8.367 -0.1510E-14 -0.1801E-15
     -8.248 -0.9896E-12 -0.1181E-12
     -8.128 -0.3105E-09 -0.3713E-10
     -8.009 -0.4677E-07 -0.5613E-08
     -7.890 -0.3346E-05 -0.4044E-06
     -7.771 -0.1112E-03 -0.1366E-04
     -7.651 -0.1639E-02 -0.2091E-03
     -7.532 -0.9266E-02 -0.1314E-02
     -7.413 -0.5219E-02 -0.1936E-02
     -7.294  0.9712E-01  0.9641E-02
     -7.175  0.2470E+00  0.3908E-01
     -7.055  0.1894E+00  0.6165E-01
     -6.936  0.2275E-01  0.6437E-01
     -6.817 -0.2473E-02  0.6407E-01
     -6.698  0.1421E+00  0.8101E-01
     -6.579  0.2572E+00  0.1117E+00
     -6.459  0.1405E+00  0.1284E+00
     -6.340 -0.2504E-02  0.1281E+00
     -6.221 -0.7411E-02  0.1272E+00
     -6.102  0.1283E+00  0.1425E+00
     -5.983  0.2566E+00  0.1731E+00
     -5.863  0.1555E+00  0.1917E+00
     -5.744 -0.3047E-02  0.1913E+00
     -5.625 -0.2267E-01  0.1886E+00
     -5.506  0.1915E+00  0.2114E+00
     -5.387  0.4944E+00  0.2704E+00
     -5.267  0.3841E+00  0.3161E+00
     -5.148  0.6896E-01  0.3244E+00
     -5.029 -0.2565E-01  0.3213E+00
     -4.910 -0.9809E-02  0.3201E+00
     -4.790 -0.1095E-02  0.3200E+00
     -4.671 -0.5117E-04  0.3200E+00
     -4.552 -0.1089E-05  0.3200E+00
     -4.433 -0.1089E-07  0.3200E+00
     -4.314 -0.5206E-10  0.3200E+00
     -4.194 -0.1697E-10  0.3200E+00
     -4.075 -0.3784E-08  0.3200E+00
     -3.956 -0.4095E-06  0.3200E+00
     -3.837 -0.2114E-04  0.3200E+00
     -3.718 -0.5095E-03  0.3199E+00
     -3.598 -0.5418E-02  0.3193E+00
     -3.479 -0.2065E-01  0.3168E+00
     -3.360  0.1447E-01  0.3186E+00
     -3.241  0.2410E+00  0.3473E+00
     -3.122  0.4775E+00  0.4042E+00
     -3.002  0.4347E+00  0.4560E+00
     -2.883  0.3366E+00  0.4961E+00
     -2.764  0.2485E+00  0.5258E+00
     -2.645  0.2475E+00  0.5553E+00
     -2.526  0.3430E+00  0.5962E+00
     -2.406  0.6490E+00  0.6735E+00
     -2.287  0.1210E+01  0.8177E+00
     -2.168  0.1145E+01  0.9542E+00
     -2.049  0.8039E+00  0.1050E+01
     -1.930  0.1405E+01  0.1218E+01
     -1.810  0.3196E+01  0.1598E+01
     -1.691  0.4400E+01  0.2123E+01
     -1.572  0.3630E+01  0.2556E+01
     -1.453  0.1683E+01  0.2756E+01
     -1.333  0.1929E+00  0.2779E+01
     -1.214  0.6736E-01  0.2787E+01
     -1.095  0.8677E+00  0.2891E+01
     -0.976  0.1669E+01  0.3090E+01
     -0.857  0.1874E+01  0.3313E+01
     -0.737  0.1677E+01  0.3513E+01
     -0.618  0.1121E+01  0.3647E+01
     -0.499  0.5130E+00  0.3708E+01
     -0.380  0.5382E+00  0.3772E+01
     -0.261  0.8145E+00  0.3869E+01
     -0.141  0.9393E+00  0.3981E+01
     -0.022  0.1147E+01  0.4118E+01
      0.097  0.1207E+01  0.4262E+01
      0.216  0.9146E+00  0.4371E+01
      0.335  0.4657E+00  0.4426E+01
      0.455  0.1737E+00  0.4447E+01
      0.574  0.3017E+00  0.4483E+01
      0.693  0.7085E+00  0.4567E+01
      0.812  0.8449E+00  0.4668E+01
      0.931  0.5903E+00  0.4738E+01
      1.051  0.5541E+00  0.4804E+01
      1.170  0.9440E+00  0.4917E+01
      1.289  0.1144E+01  0.5053E+01
      1.408  0.7623E+00  0.5144E+01
      1.528  0.3756E+00  0.5189E+01
      1.647  0.2066E+00  0.5214E+01
      1.766  0.1550E+00  0.5232E+01
      1.885  0.2173E+00  0.5258E+01
      2.004  0.5632E+00  0.5325E+01
      2.124  0.1334E+01  0.5484E+01
      2.243  0.2024E+01  0.5725E+01
      2.362  0.1775E+01  0.5937E+01
      2.481  0.9666E+00  0.6052E+01
      2.600  0.2618E+00  0.6084E+01
      2.720  0.2718E+00  0.6116E+01
      2.839  0.1491E+01  0.6294E+01
      2.958  0.3154E+01  0.6670E+01
      3.077  0.4165E+01  0.7166E+01
      3.196  0.4462E+01  0.7698E+01
      3.316  0.4234E+01  0.8203E+01
      3.435  0.3384E+01  0.8606E+01
      3.554  0.3370E+01  0.9008E+01
      3.673  0.3871E+01  0.9469E+01
      3.792  0.2840E+01  0.9808E+01
      3.912  0.2086E+01  0.1006E+02
      4.031  0.3000E+01  0.1041E+02
      4.150  0.4225E+01  0.1092E+02
      4.269  0.4519E+01  0.1146E+02
      4.388  0.3211E+01  0.1184E+02
      4.508  0.2059E+01  0.1208E+02
      4.627  0.2353E+01  0.1237E+02
      4.746  0.2947E+01  0.1272E+02
      4.865  0.4300E+01  0.1323E+02
      4.985  0.4861E+01  0.1381E+02
      5.104  0.4008E+01  0.1429E+02
      5.223  0.4095E+01  0.1477E+02
      5.342  0.3838E+01  0.1523E+02
      5.461  0.2767E+01  0.1556E+02
      5.581  0.2479E+01  0.1586E+02
      5.700  0.3181E+01  0.1624E+02
      5.819  0.3992E+01  0.1671E+02
      5.938  0.4827E+01  0.1729E+02
      6.057  0.6286E+01  0.1804E+02
      6.177  0.6629E+01  0.1883E+02
      6.296  0.4747E+01  0.1939E+02
      6.415  0.1865E+01  0.1962E+02
      6.534  0.3519E+00  0.1966E+02
      6.653  0.1451E+01  0.1983E+02
      6.773  0.2902E+01  0.2018E+02
      6.892  0.2290E+01  0.2045E+02
      7.011  0.1611E+01  0.2064E+02
      7.130  0.2829E+01  0.2098E+02
      7.249  0.4246E+01  0.2149E+02
      7.369  0.4589E+01  0.2203E+02
      7.488  0.4737E+01  0.2260E+02
      7.607  0.4941E+01  0.2319E+02
      7.726  0.4707E+01  0.2375E+02
      7.846  0.3521E+01  0.2417E+02
      7.965  0.2393E+01  0.2445E+02
      8.084  0.2738E+01  0.2478E+02
      8.203  0.4001E+01  0.2526E+02
      8.322  0.5194E+01  0.2587E+02
      8.442  0.4740E+01  0.2644E+02
      8.561  0.3266E+01  0.2683E+02
      8.680  0.3115E+01  0.2720E+02
      8.799  0.3324E+01  0.2760E+02
      8.918  0.2965E+01  0.2795E+02
      9.038  0.3396E+01  0.2835E+02
      9.157  0.4587E+01  0.2890E+02
      9.276  0.4851E+01  0.2948E+02
      9.395  0.4003E+01  0.2996E+02
      9.514  0.3230E+01  0.3034E+02
      9.634  0.2892E+01  0.3069E+02
      9.753  0.3250E+01  0.3107E+02
      9.872  0.3373E+01  0.3148E+02
      9.991  0.2728E+01  0.3180E+02
     10.110  0.3116E+01  0.3217E+02
     10.230  0.4325E+01  0.3269E+02
     10.349  0.4417E+01  0.3322E+02
     10.468  0.3520E+01  0.3363E+02
     10.587  0.3459E+01  0.3405E+02
     10.706  0.4318E+01  0.3456E+02
     10.826  0.5928E+01  0.3527E+02
     10.945  0.6985E+01  0.3610E+02
     11.064  0.5984E+01  0.3681E+02
     11.183  0.4938E+01  0.3740E+02
     11.303  0.4885E+01  0.3799E+02
     11.422  0.4275E+01  0.3849E+02
     11.541  0.3144E+01  0.3887E+02
     11.660  0.3309E+01  0.3926E+02
     11.779  0.4201E+01  0.3976E+02
     11.899  0.4694E+01  0.4032E+02
     12.018  0.5224E+01  0.4095E+02
     12.137  0.5302E+01  0.4158E+02
     12.256  0.4359E+01  0.4210E+02
     12.375  0.3094E+01  0.4247E+02
     12.495  0.2124E+01  0.4272E+02
     12.614  0.1844E+01  0.4294E+02
     12.733  0.1846E+01  0.4316E+02
     12.852  0.2301E+01  0.4344E+02
     12.971  0.3511E+01  0.4385E+02
     13.091  0.4144E+01  0.4435E+02
     13.210  0.3158E+01  0.4472E+02
     13.329  0.2408E+01  0.4501E+02
     13.448  0.2857E+01  0.4535E+02
     13.567  0.3082E+01  0.4572E+02
     13.687  0.2654E+01  0.4604E+02
     13.806  0.2730E+01  0.4636E+02
     13.925  0.3030E+01  0.4672E+02
     14.044  0.3138E+01  0.4710E+02
     14.164  0.2811E+01  0.4743E+02
     14.283  0.1552E+01  0.4762E+02
     14.402  0.8990E+00  0.4772E+02
     14.521  0.1095E+01  0.4785E+02
     14.640  0.9855E+00  0.4797E+02
     14.760  0.1017E+01  0.4809E+02
     14.879  0.1647E+01  0.4829E+02
     14.998  0.2008E+01  0.4853E+02
     15.117  0.1822E+01  0.4875E+02
     15.236  0.1678E+01  0.4895E+02
     15.356  0.1959E+01  0.4918E+02
     15.475  0.2483E+01  0.4948E+02
     15.594  0.2067E+01  0.4972E+02
     15.713  0.1588E+01  0.4991E+02
     15.832  0.1887E+01  0.5014E+02
     15.952  0.1785E+01  0.5035E+02
     16.071  0.1221E+01  0.5049E+02
     16.190  0.1073E+01  0.5062E+02
     16.309  0.1530E+01  0.5080E+02
     16.428  0.1644E+01  0.5100E+02
     16.548  0.1034E+01  0.5112E+02
     16.667  0.7388E+00  0.5121E+02
     16.786  0.1465E+01  0.5139E+02
     16.905  0.2223E+01  0.5165E+02
     17.024  0.2109E+01  0.5190E+02
     17.144  0.2420E+01  0.5219E+02
     17.263  0.2908E+01  0.5254E+02
     17.382  0.2190E+01  0.5280E+02
     17.501  0.1304E+01  0.5295E+02
     17.621  0.1852E+01  0.5318E+02
     17.740  0.2938E+01  0.5353E+02
     17.859  0.2252E+01  0.5379E+02
     17.978  0.7778E+00  0.5389E+02
     18.097  0.6211E+00  0.5396E+02
     18.217  0.1241E+01  0.5411E+02
     18.336  0.1328E+01  0.5427E+02
     18.455  0.1047E+01  0.5439E+02
     18.574  0.1167E+01  0.5453E+02
     18.693  0.1388E+01  0.5470E+02
     18.813  0.1389E+01  0.5486E+02
     18.932  0.1634E+01  0.5506E+02
     19.051  0.2337E+01  0.5534E+02
     19.170  0.2898E+01  0.5568E+02
     19.289  0.2190E+01  0.5594E+02
     19.409  0.6181E+00  0.5602E+02
     19.528 -0.1285E+00  0.5600E+02
     19.647  0.1952E+00  0.5602E+02
     19.766  0.1009E+01  0.5614E+02
     19.885  0.1234E+01  0.5629E+02
     20.005  0.8115E+00  0.5639E+02
     20.124  0.7210E+00  0.5647E+02
     20.243  0.1552E+01  0.5666E+02
     20.362  0.3038E+01  0.5702E+02
     20.482  0.3401E+01  0.5743E+02
     20.601  0.2329E+01  0.5770E+02
     20.720  0.1453E+01  0.5788E+02
     20.839  0.1209E+01  0.5802E+02
     20.958  0.1154E+01  0.5816E+02
     21.078  0.1496E+01  0.5834E+02
     21.197  0.1766E+01  0.5855E+02
     21.316  0.1696E+01  0.5875E+02
     21.435  0.1770E+01  0.5896E+02
     21.554  0.2433E+01  0.5925E+02
     21.674  0.2566E+01  0.5956E+02
     21.793  0.1273E+01  0.5971E+02
     21.912  0.2073E+00  0.5973E+02
     22.031  0.3528E+00  0.5978E+02
     22.150  0.5794E+00  0.5984E+02
     22.270  0.2621E+00  0.5988E+02
     22.389 -0.4558E-02  0.5987E+02
     22.508 -0.1399E-01  0.5987E+02
     22.627  0.4401E-01  0.5988E+02
     22.746  0.5723E-01  0.5989E+02
     22.866  0.2764E-01  0.5989E+02
     22.985  0.4093E-01  0.5989E+02
     23.104  0.6154E-01  0.5990E+02
     23.223  0.2946E-01  0.5990E+02
     23.342  0.1121E-03  0.5990E+02
     23.462 -0.2648E-02  0.5990E+02
     23.581 -0.5468E-03  0.5990E+02
     23.700 -0.7551E-04  0.5990E+02
     23.819 -0.5741E-03  0.5990E+02
     23.939 -0.3868E-02  0.5990E+02
     24.058 -0.5628E-02  0.5990E+02
     24.177  0.3029E-01  0.5991E+02
     24.296  0.1046E+00  0.5992E+02
     24.415  0.1580E+00  0.5994E+02
     24.535  0.2365E+00  0.5997E+02
     24.654  0.2287E+00  0.5999E+02
     24.773  0.7547E-01  0.6000E+02
     24.892 -0.8642E-02  0.6000E+02
     25.011 -0.8043E-02  0.6000E+02
     25.131 -0.1283E-02  0.6000E+02
     25.250 -0.8123E-04  0.6000E+02
     25.369 -0.2311E-05  0.6000E+02
     25.488 -0.3083E-07  0.6000E+02
     25.607 -0.1966E-09  0.6000E+02
     25.727 -0.6052E-12  0.6000E+02
     25.846 -0.8941E-15  0.6000E+02
     25.965  0.0000E+00  0.6000E+02
     26.084  0.0000E+00  0.6000E+02
     26.203  0.0000E+00  0.6000E+02
     26.323  0.0000E+00  0.6000E+02
     26.442  0.0000E+00  0.6000E+02
     26.561  0.0000E+00  0.6000E+02
