    4    4    1    1
  0.1444527E+02  0.3866000E-09  0.3866000E-09  0.3866000E-09  0.5000000E-15
  1.000000000000000E-004
  CAR 
 unknown system                          
     40     27     30
 
  0.0000000E+00  0.0000000E+00  0.0000000E+00  0.8000000E-02
    1       -2.896687   1.000000
    2        2.890620   1.000000
    3        2.975915   1.000000
    4        2.977148   1.000000
    5        3.145579   1.000000
    6        4.889397   1.000000
    7        5.287433   1.000000
    8        7.986964   1.000000
    9        8.031291   1.000000
   10        8.675686   1.000000
   11        8.780827   1.000000
   12        8.796315   1.000000
   13        8.813779   1.000000
   14       10.055303   1.000000
   15       10.522863   1.000000
   16       10.857630   1.000000
   17       11.151782   1.000009
   18       12.061945  -0.034667
   19       12.291130  -0.002676
   20       12.741683  -0.000000
   21       14.945693  -0.000000
   22       15.807694  -0.000000
   23       16.369538  -0.000000
   24       17.521741   0.000000
   25       17.627887   0.000000
   26       17.821146   0.000000
   27       17.991653   0.000000
   28       18.671003   0.000000
   29       22.647931   0.000000
   30       23.026981   0.000000
 
  0.2000000E+00  0.0000000E+00  0.0000000E+00  0.1600000E-01
    1       -3.131981   1.000000
    2       -2.913690   1.000000
    3       -2.587163   1.000000
    4        0.463322   1.000000
    5        1.493481   1.000000
    6        3.174842   1.000000
    7        4.053628   1.000000
    8        4.731911   1.000000
    9        5.740259   1.000000
   10        5.832995   1.000000
   11        7.435084   1.000000
   12        7.658331   1.000000
   13        8.036972   1.000000
   14        8.720163   1.000000
   15        9.091135   1.000000
   16        9.794315   1.000000
   17       10.199396   1.000000
   18       10.263597   1.000000
   19       10.421360   1.000000
   20       11.483976   1.017110
   21       11.714465   0.911353
   22       11.740722   0.841302
   23       12.748814  -0.000000
   24       14.896738  -0.000000
   25       16.372343  -0.000000
   26       16.669291  -0.000000
   27       18.170202   0.000000
   28       18.184491   0.000000
   29       20.398395   0.000000
   30       22.110400   0.000000
 
  0.0000000E+00  0.2000000E+00  0.0000000E+00  0.1600000E-01
    1       -3.208111   1.000000
    2       -3.128978   1.000000
    3       -2.608557   1.000000
    4        1.059421   1.000000
    5        2.181654   1.000000
    6        3.015056   1.000000
    7        4.194175   1.000000
    8        4.689598   1.000000
    9        5.615884   1.000000
   10        5.851838   1.000000
   11        7.733519   1.000000
   12        7.847933   1.000000
   13        8.794768   1.000000
   14        8.960045   1.000000
   15        9.385180   1.000000
   16        9.640229   1.000000
   17        9.641671   1.000000
   18       10.556536   1.000000
   19       10.660349   1.000000
   20       10.857029   1.000000
   21       11.403134   1.004996
   22       11.949839   0.081892
   23       12.223074  -0.009023
   24       13.755573  -0.000000
   25       15.610774  -0.000000
   26       16.355760  -0.000000
   27       18.297082   0.000000
   28       18.383085   0.000000
   29       20.125256   0.000000
   30       21.628842   0.000000
 
  0.0000000E+00  0.0000000E+00  0.2000000E+00  0.1600000E-01
    1       -3.200185   1.000000
    2       -2.901914   1.000000
    3       -2.610961   1.000000
    4        1.074338   1.000000
    5        1.668816   1.000000
    6        3.012058   1.000000
    7        4.228635   1.000000
    8        4.723124   1.000000
    9        5.772438   1.000000
   10        5.928341   1.000000
   11        7.504335   1.000000
   12        7.901051   1.000000
   13        8.011441   1.000000
   14        8.954811   1.000000
   15        9.491718   1.000000
   16        9.625937   1.000000
   17        9.880343   1.000000
   18       10.209182   1.000000
   19       10.696243   1.000000
   20       10.760798   1.000000
   21       11.944490   0.094371
   22       12.037911  -0.028482
   23       12.257214  -0.005088
   24       14.022608  -0.000000
   25       16.410607  -0.000000
   26       16.442079  -0.000000
   27       18.212365   0.000000
   28       18.315804   0.000000
   29       20.533736   0.000000
   30       21.686869   0.000000
 
  0.4000000E+00  0.0000000E+00  0.0000000E+00  0.1600000E-01
    1       -1.886646   1.000000
    2        1.815565   1.000000
    3        2.403485   1.000000
    4        4.027990   1.000000
    5        5.711234   1.000000
    6        5.753775   1.000000
    7        7.061886   1.000000
    8        7.316915   1.000000
    9        7.422824   1.000000
   10        7.794845   1.000000
   11        8.017468   1.000000
   12        9.367157   1.000000
   13        9.607633   1.000000
   14        9.766544   1.000000
   15        9.994010   1.000000
   16       10.576422   1.000000
   17       11.211365   1.000054
   18       13.780617  -0.000000
   19       13.842913  -0.000000
   20       14.174030  -0.000000
   21       14.725004  -0.000000
   22       15.099599  -0.000000
   23       15.483322  -0.000000
   24       16.656244  -0.000000
   25       17.697279   0.000000
   26       17.753112   0.000000
   27       18.114283   0.000000
   28       18.344443   0.000000
   29       19.930437   0.000000
   30       24.561083   0.000000
 
  0.0000000E+00  0.4000000E+00  0.0000000E+00  0.1600000E-01
    1       -2.026972   1.000000
    2        3.060886   1.000000
    3        3.619409   1.000000
    4        3.902223   1.000000
    5        5.516958   1.000000
    6        5.557816   1.000000
    7        6.615902   1.000000
    8        7.589577   1.000000
    9        7.639085   1.000000
   10        8.071906   1.000000
   11        8.646586   1.000000
   12        9.364485   1.000000
   13        9.626845   1.000000
   14        9.667146   1.000000
   15       10.497810   1.000000
   16       10.649337   1.000000
   17       10.939469   1.000000
   18       11.712361   0.916218
   19       13.392342  -0.000000
   20       13.597974  -0.000000
   21       14.258795  -0.000000
   22       14.939170  -0.000000
   23       15.120063  -0.000000
   24       15.886404  -0.000000
   25       17.163169  -0.000000
   26       18.446866   0.000000
   27       18.505818   0.000000
   28       18.654779   0.000000
   29       19.763322   0.000000
   30       24.532247   0.000000
 
  0.0000000E+00  0.0000000E+00  0.4000000E+00  0.1600000E-01
    1       -2.021109   1.000000
    2        2.998952   1.000000
    3        3.096161   1.000000
    4        3.872248   1.000000
    5        5.670302   1.000000
    6        5.676628   1.000000
    7        6.718766   1.000000
    8        7.419302   1.000000
    9        7.582590   1.000000
   10        8.025445   1.000000
   11        8.579635   1.000000
   12        9.364447   1.000000
   13        9.377042   1.000000
   14        9.512319   1.000000
   15        9.551148   1.000000
   16       10.242705   1.000000
   17       10.835177   1.000000
   18       12.985093  -0.000000
   19       13.769804  -0.000000
   20       13.884583  -0.000000
   21       14.430879  -0.000000
   22       15.050350  -0.000000
   23       15.680957  -0.000000
   24       16.292030  -0.000000
   25       17.882599   0.000000
   26       18.005513   0.000000
   27       18.493299   0.000000
   28       18.980260   0.000000
   29       19.829826   0.000000
   30       24.288096   0.000000
 
  0.2000000E+00  0.2000000E+00  0.0000000E+00  0.3200000E-01
    1       -2.326478   1.000000
    2       -0.713141   1.000000
    3       -0.026063   1.000000
    4        2.869198   1.000000
    5        3.538961   1.000000
    6        4.092348   1.000000
    7        4.950602   1.000000
    8        4.981698   1.000000
    9        5.697429   1.000000
   10        7.191594   1.000000
   11        7.432465   1.000000
   12        7.766701   1.000000
   13        8.380779   1.000000
   14        8.388583   1.000000
   15        8.803849   1.000000
   16       10.057697   1.000000
   17       10.838968   1.000000
   18       10.944896   1.000000
   19       10.945751   1.000000
   20       11.803040   0.615746
   21       12.482876  -0.000020
   22       12.885930  -0.000000
   23       13.617625  -0.000000
   24       14.081676  -0.000000
   25       14.968764  -0.000000
   26       15.851183  -0.000000
   27       16.821665  -0.000000
   28       19.220612   0.000000
   29       20.210939   0.000000
   30       20.514147   0.000000
 
  0.0000000E+00  0.2000000E+00  0.2000000E+00  0.3200000E-01
    1       -2.342672   1.000000
    2       -1.146015   1.000000
    3        0.243516   1.000000
    4        2.834929   1.000000
    5        4.001191   1.000000
    6        4.091197   1.000000
    7        4.901591   1.000000
    8        5.259387   1.000000
    9        5.772051   1.000000
   10        7.263365   1.000000
   11        7.535885   1.000000
   12        7.693342   1.000000
   13        8.024201   1.000000
   14        8.346967   1.000000
   15        8.961688   1.000000
   16       10.349757   1.000000
   17       10.516597   1.000000
   18       11.037406   1.000000
   19       11.146001   1.000007
   20       11.681318   0.975169
   21       12.143826  -0.024653
   22       13.290982  -0.000000
   23       13.330835  -0.000000
   24       13.860925  -0.000000
   25       14.683926  -0.000000
   26       15.997231  -0.000000
   27       16.465579  -0.000000
   28       19.147548   0.000000
   29       20.327164   0.000000
   30       21.011982   0.000000
 
  0.2000000E+00  0.0000000E+00  0.2000000E+00  0.3200000E-01
    1       -2.326504   1.000000
    2       -0.506991   1.000000
    3       -0.147238   1.000000
    4        2.902003   1.000000
    5        3.277247   1.000000
    6        4.211563   1.000000
    7        4.931475   1.000000
    8        5.003984   1.000000
    9        5.569468   1.000000
   10        7.183348   1.000000
   11        7.250181   1.000000
   12        8.030546   1.000000
   13        8.258312   1.000000
   14        8.393958   1.000000
   15        9.243526   1.000000
   16        9.568925   1.000000
   17       10.189857   1.000000
   18       11.198726   1.000037
   19       11.511169   1.023178
   20       12.075889  -0.035458
   21       12.398848  -0.000221
   22       12.804622  -0.000000
   23       13.484014  -0.000000
   24       14.042461  -0.000000
   25       14.905077  -0.000000
   26       16.349765  -0.000000
   27       16.594266  -0.000000
   28       19.218670   0.000000
   29       20.260813   0.000000
   30       20.533498   0.000000
 
  0.4000000E+00  0.2000000E+00  0.0000000E+00  0.3200000E-01
    1       -1.782246   1.000000
    2        0.630752   1.000000
    3        2.009910   1.000000
    4        2.438054   1.000000
    5        2.786719   1.000000
    6        3.225691   1.000000
    7        4.864199   1.000000
    8        5.146012   1.000000
    9        5.669667   1.000000
   10        6.113881   1.000000
   11        7.662567   1.000000
   12        7.738301   1.000000
   13        8.312894   1.000000
   14        9.021967   1.000000
   15        9.333663   1.000000
   16       10.178465   1.000000
   17       10.527419   1.000000
   18       10.720911   1.000000
   19       11.929543   0.133055
   20       12.030449  -0.025005
   21       12.750860  -0.000000
   22       13.145451  -0.000000
   23       13.372508  -0.000000
   24       13.810138  -0.000000
   25       15.361318  -0.000000
   26       15.558777  -0.000000
   27       17.688199   0.000000
   28       19.038542   0.000000
   29       20.326016   0.000000
   30       21.387043   0.000000
 
  0.0000000E+00  0.4000000E+00  0.2000000E+00  0.3200000E-01
    1       -1.881852   1.000000
    2        1.231075   1.000000
    3        2.163620   1.000000
    4        2.249364   1.000000
    5        3.266532   1.000000
    6        3.658017   1.000000
    7        4.524828   1.000000
    8        4.890738   1.000000
    9        5.354931   1.000000
   10        6.219404   1.000000
   11        7.756229   1.000000
   12        8.372167   1.000000
   13        8.492914   1.000000
   14        8.688907   1.000000
   15        8.993044   1.000000
   16        9.598828   1.000000
   17       10.953539   1.000000
   18       11.312784   1.000769
   19       11.544813   1.030651
   20       11.790104   0.667852
   21       12.349033  -0.000761
   22       12.664997  -0.000000
   23       12.942943  -0.000000
   24       14.374017  -0.000000
   25       14.808408  -0.000000
   26       15.469399  -0.000000
   27       17.323712   0.000000
   28       19.166846   0.000000
   29       20.513198   0.000000
   30       22.042105   0.000000
 
  0.2000000E+00  0.0000000E+00  0.4000000E+00  0.3200000E-01
    1       -1.879789   1.000000
    2        1.196244   1.000000
    3        2.136751   1.000000
    4        2.319956   1.000000
    5        3.220483   1.000000
    6        3.493323   1.000000
    7        4.746982   1.000000
    8        5.027267   1.000000
    9        5.706504   1.000000
   10        6.031726   1.000000
   11        7.660215   1.000000
   12        8.172720   1.000000
   13        8.193227   1.000000
   14        8.502784   1.000000
   15        9.345849   1.000000
   16       10.014590   1.000000
   17       10.283051   1.000000
   18       10.635734   1.000000
   19       11.263122   1.000225
   20       12.146806  -0.023963
   21       12.285359  -0.003000
   22       13.024345  -0.000000
   23       13.327265  -0.000000
   24       14.007834  -0.000000
   25       14.529003  -0.000000
   26       15.820130  -0.000000
   27       18.132190   0.000000
   28       19.047286   0.000000
   29       20.350166   0.000000
   30       21.600987   0.000000
 
 -0.2000000E+00  0.4000000E+00  0.0000000E+00  0.3200000E-01
    1       -1.887768   1.000000
    2        1.414831   1.000000
    3        2.229920   1.000000
    4        2.263641   1.000000
    5        3.210178   1.000000
    6        3.574100   1.000000
    7        4.756492   1.000000
    8        4.917621   1.000000
    9        5.528894   1.000000
   10        5.926686   1.000000
   11        7.763558   1.000000
   12        8.378953   1.000000
   13        8.487493   1.000000
   14        8.580106   1.000000
   15        9.196454   1.000000
   16        9.736320   1.000000
   17       10.830254   1.000000
   18       11.114663   1.000003
   19       11.363029   1.002313
   20       11.793542   0.654198
   21       12.135360  -0.026598
   22       12.502875  -0.000011
   23       13.082939  -0.000000
   24       14.099612  -0.000000
   25       14.559030  -0.000000
   26       15.426406  -0.000000
   27       18.205481   0.000000
   28       19.157482   0.000000
   29       20.276788   0.000000
   30       21.541424   0.000000
 
 -0.4000000E+00  0.0000000E+00  0.2000000E+00  0.3200000E-01
    1       -1.782289   1.000000
    2        0.681619   1.000000
    3        1.991650   1.000000
    4        2.447904   1.000000
    5        2.785795   1.000000
    6        3.189628   1.000000
    7        4.894633   1.000000
    8        5.165341   1.000000
    9        5.716784   1.000000
   10        6.096827   1.000000
   11        7.725093   1.000000
   12        7.921536   1.000000
   13        8.317512   1.000000
   14        8.760730   1.000000
   15        9.432430   1.000000
   16       10.053350   1.000000
   17       10.544073   1.000000
   18       10.846175   1.000000
   19       12.050156  -0.032504
   20       12.206827  -0.011528
   21       12.361076  -0.000572
   22       13.156268  -0.000000
   23       13.436533  -0.000000
   24       13.870314  -0.000000
   25       14.919650  -0.000000
   26       15.720428  -0.000000
   27       17.296827   0.000000
   28       18.968913   0.000000
   29       20.405024   0.000000
   30       21.568368   0.000000
 
  0.0000000E+00  0.2000000E+00  0.4000000E+00  0.3200000E-01
    1       -1.873574   1.000000
    2        0.970732   1.000000
    3        2.165106   1.000000
    4        2.199486   1.000000
    5        3.282712   1.000000
    6        3.609738   1.000000
    7        4.575407   1.000000
    8        4.911570   1.000000
    9        5.460827   1.000000
   10        6.307238   1.000000
   11        7.666962   1.000000
   12        7.911219   1.000000
   13        8.181275   1.000000
   14        8.916639   1.000000
   15        9.007624   1.000000
   16       10.169634   1.000000
   17       10.269650   1.000000
   18       10.532329   1.000000
   19       11.566484   1.034209
   20       12.022673  -0.020455
   21       12.830348  -0.000000
   22       13.050842  -0.000000
   23       13.263557  -0.000000
   24       14.115270  -0.000000
   25       15.433130  -0.000000
   26       15.468663  -0.000000
   27       17.688616   0.000000
   28       19.149926   0.000000
   29       20.370102   0.000000
   30       22.062647   0.000000
 
  0.4000000E+00  0.4000000E+00  0.0000000E+00  0.3200000E-01
    1       -6.639574   1.000000
    2       -1.548405   1.000000
    3       -0.035906   1.000000
    4        0.075424   1.000000
    5        3.113699   1.000000
    6        3.563443   1.000000
    7        4.174913   1.000000
    8        4.301480   1.000000
    9        4.573917   1.000000
   10        4.951914   1.000000
   11        5.679759   1.000000
   12        6.015172   1.000000
   13        7.042523   1.000000
   14        7.398507   1.000000
   15        8.340889   1.000000
   16        9.058429   1.000000
   17        9.492448   1.000000
   18       10.352374   1.000000
   19       10.511929   1.000000
   20       11.055288   1.000000
   21       11.544897   1.030667
   22       11.922619   0.152849
   23       11.970840   0.039856
   24       13.019228  -0.000000
   25       14.899749  -0.000000
   26       16.221661  -0.000000
   27       17.763809   0.000000
   28       18.760331   0.000000
   29       20.856861   0.000000
   30       21.191780   0.000000
 
  0.0000000E+00  0.4000000E+00  0.4000000E+00  0.3200000E-01
    1       -7.201166   1.000000
    2       -1.537337   1.000000
    3       -0.359912   1.000000
    4       -0.093525   1.000000
    5        3.403034   1.000000
    6        3.533071   1.000000
    7        4.244862   1.000000
    8        4.245401   1.000000
    9        4.843293   1.000000
   10        4.934806   1.000000
   11        5.770186   1.000000
   12        6.361584   1.000000
   13        6.702422   1.000000
   14        7.132546   1.000000
   15        8.305895   1.000000
   16        9.158624   1.000000
   17        9.230146   1.000000
   18       10.382325   1.000000
   19       10.812954   1.000000
   20       10.912080   1.000000
   21       11.867246   0.348127
   22       12.272185  -0.003865
   23       12.551270  -0.000002
   24       13.656689  -0.000000
   25       14.922526  -0.000000
   26       16.350026  -0.000000
   27       17.706670   0.000000
   28       18.261234   0.000000
   29       20.423851   0.000000
   30       20.709354   0.000000
 
  0.4000000E+00  0.0000000E+00  0.4000000E+00  0.3200000E-01
    1       -6.032809   1.000000
    2       -1.547464   1.000000
    3        0.072926   1.000000
    4        0.181475   1.000000
    5        3.071814   1.000000
    6        3.382632   1.000000
    7        4.118865   1.000000
    8        4.162097   1.000000
    9        4.421315   1.000000
   10        4.850357   1.000000
   11        5.778907   1.000000
   12        6.120637   1.000000
   13        7.115713   1.000000
   14        7.923267   1.000000
   15        8.614872   1.000000
   16        9.198215   1.000000
   17        9.741922   1.000000
   18        9.788663   1.000000
   19       10.860663   1.000000
   20       11.274143   1.000299
   21       11.332792   1.001214
   22       11.721108   0.895255
   23       11.981006   0.023390
   24       12.372043  -0.000438
   25       14.782813  -0.000000
   26       15.754192  -0.000000
   27       17.276618  -0.000000
   28       18.620690   0.000000
   29       21.161931   0.000000
   30       21.453774   0.000000
 
  0.2000000E+00  0.2000000E+00  0.2000000E+00  0.6400000E-01
    1       -2.291590   1.000000
    2       -2.108235   1.000000
    3       -1.792269   1.000000
    4       -0.297723   1.000000
    5        2.973525   1.000000
    6        3.068853   1.000000
    7        3.256546   1.000000
    8        5.167431   1.000000
    9        5.237524   1.000000
   10        5.352332   1.000000
   11        5.773624   1.000000
   12        5.888011   1.000000
   13        6.033952   1.000000
   14        8.167191   1.000000
   15        8.279483   1.000000
   16        8.659987   1.000000
   17        9.772542   1.000000
   18       10.059878   1.000000
   19       10.632850   1.000000
   20       10.946493   1.000000
   21       11.123942   1.000003
   22       11.303971   1.000625
   23       12.635947  -0.000000
   24       13.514962  -0.000000
   25       14.450812  -0.000000
   26       16.243697  -0.000000
   27       16.880480  -0.000000
   28       17.189622  -0.000000
   29       20.312137   0.000000
   30       20.399818   0.000000
 
  0.4000000E+00  0.2000000E+00  0.2000000E+00  0.6400000E-01
    1       -1.712863   1.000000
    2       -0.770308   1.000000
    3        2.953244   1.000000
    4        3.377976   1.000000
    5        3.952666   1.000000
    6        4.277028   1.000000
    7        5.230498   1.000000
    8        6.023175   1.000000
    9        6.255837   1.000000
   10        6.759131   1.000000
   11        7.267309   1.000000
   12        7.365223   1.000000
   13        8.093709   1.000000
   14        9.170749   1.000000
   15        9.913975   1.000000
   16       10.334793   1.000000
   17       10.820786   1.000000
   18       11.057785   1.000000
   19       11.337744   1.001354
   20       11.870974   0.333298
   21       12.264785  -0.004436
   22       13.050553  -0.000000
   23       13.815840  -0.000000
   24       14.025229  -0.000000
   25       15.148932  -0.000000
   26       17.112427  -0.000000
   27       17.430494   0.000000
   28       18.884253   0.000000
   29       20.507148   0.000000
   30       21.250491   0.000000
 
  0.2000000E+00  0.4000000E+00  0.2000000E+00  0.6400000E-01
    1       -1.796985   1.000000
    2       -1.094202   1.000000
    3        3.333626   1.000000
    4        3.592551   1.000000
    5        4.033611   1.000000
    6        4.310405   1.000000
    7        5.177608   1.000000
    8        6.080338   1.000000
    9        6.179661   1.000000
   10        7.062307   1.000000
   11        7.411482   1.000000
   12        7.564414   1.000000
   13        8.393788   1.000000
   14        9.058898   1.000000
   15        9.795673   1.000000
   16        9.863350   1.000000
   17       10.165432   1.000000
   18       10.884664   1.000000
   19       11.306462   1.000663
   20       11.768321   0.750198
   21       12.081414  -0.035334
   22       13.005482  -0.000000
   23       13.421083  -0.000000
   24       14.151038  -0.000000
   25       15.897988  -0.000000
   26       17.183885  -0.000000
   27       17.295210   0.000000
   28       19.218042   0.000000
   29       20.799657   0.000000
   30       21.060800   0.000000
 
  0.2000000E+00  0.2000000E+00  0.4000000E+00  0.6400000E-01
    1       -1.778221   1.000000
    2       -0.962693   1.000000
    3        3.290004   1.000000
    4        3.604370   1.000000
    5        3.929285   1.000000
    6        4.317369   1.000000
    7        5.184640   1.000000
    8        6.067508   1.000000
    9        6.234935   1.000000
   10        7.056560   1.000000
   11        7.189327   1.000000
   12        7.487139   1.000000
   13        8.280327   1.000000
   14        9.218820   1.000000
   15        9.486314   1.000000
   16       10.116283   1.000000
   17       10.218154   1.000000
   18       10.920717   1.000000
   19       11.364238   1.002371
   20       11.614100   1.031730
   21       12.256702  -0.005135
   22       13.083141  -0.000000
   23       13.657779  -0.000000
   24       14.097417  -0.000000
   25       15.750492  -0.000000
   26       17.021302  -0.000000
   27       17.568140   0.000000
   28       19.106312   0.000000
   29       20.701124   0.000000
   30       21.035744   0.000000
 
  0.4000000E+00  0.4000000E+00  0.2000000E+00  0.6400000E-01
    1       -1.625208   1.000000
    2       -0.891669   1.000000
    3        3.074408   1.000000
    4        3.693547   1.000000
    5        4.591675   1.000000
    6        4.888752   1.000000
    7        5.433080   1.000000
    8        5.974557   1.000000
    9        6.203900   1.000000
   10        6.684790   1.000000
   11        7.338913   1.000000
   12        7.702891   1.000000
   13        8.615484   1.000000
   14        8.715577   1.000000
   15        9.335670   1.000000
   16       10.307525   1.000000
   17       10.715481   1.000000
   18       10.928509   1.000000
   19       11.698532   0.945422
   20       11.774280   0.728471
   21       11.992752   0.007356
   22       13.004698  -0.000000
   23       13.488108  -0.000000
   24       13.533151  -0.000000
   25       15.142524  -0.000000
   26       16.910113  -0.000000
   27       17.697657   0.000000
   28       18.736245   0.000000
   29       19.798327   0.000000
   30       21.559525   0.000000
 
  0.2000000E+00  0.4000000E+00  0.4000000E+00  0.6400000E-01
    1       -1.632478   1.000000
    2       -0.989286   1.000000
    3        2.896589   1.000000
    4        3.606266   1.000000
    5        4.214960   1.000000
    6        5.122697   1.000000
    7        5.528554   1.000000
    8        6.047561   1.000000
    9        6.091414   1.000000
   10        6.695420   1.000000
   11        7.212638   1.000000
   12        7.570171   1.000000
   13        8.311929   1.000000
   14        8.848472   1.000000
   15        9.255729   1.000000
   16       10.303808   1.000000
   17       10.756201   1.000000
   18       10.970909   1.000000
   19       11.890377   0.259463
   20       12.028025  -0.023692
   21       12.152914  -0.022551
   22       12.933879  -0.000000
   23       13.787024  -0.000000
   24       13.917209  -0.000000
   25       15.392378  -0.000000
   26       16.799888  -0.000000
   27       17.160975  -0.000000
   28       18.954711   0.000000
   29       20.036068   0.000000
   30       21.450992   0.000000
 
  0.4000000E+00  0.2000000E+00  0.4000000E+00  0.6400000E-01
    1       -1.618730   1.000000
    2       -0.723710   1.000000
    3        3.118972   1.000000
    4        3.704506   1.000000
    5        4.588635   1.000000
    6        4.790690   1.000000
    7        5.312351   1.000000
    8        5.892284   1.000000
    9        6.211638   1.000000
   10        6.814541   1.000000
   11        7.496468   1.000000
   12        7.737299   1.000000
   13        8.791083   1.000000
   14        9.138182   1.000000
   15        9.470671   1.000000
   16       10.653828   1.000000
   17       10.817523   1.000000
   18       11.096248   1.000001
   19       11.155649   1.000010
   20       11.651293   1.010867
   21       12.068476  -0.035251
   22       12.561129  -0.000002
   23       12.830709  -0.000000
   24       13.219337  -0.000000
   25       15.480584  -0.000000
   26       16.826059  -0.000000
   27       17.775826   0.000000
   28       18.565861   0.000000
   29       19.741135   0.000000
   30       21.667524   0.000000
 
  0.4000000E+00  0.4000000E+00  0.4000000E+00  0.6400000E-01
    1       -5.413290   1.000000
    2       -1.718382   1.000000
    3        0.779050   1.000000
    4        1.224150   1.000000
    5        3.802644   1.000000
    6        4.046079   1.000000
    7        4.164674   1.000000
    8        4.571391   1.000000
    9        4.869593   1.000000
   10        5.912389   1.000000
   11        6.047375   1.000000
   12        6.273097   1.000000
   13        6.690804   1.000000
   14        6.842681   1.000000
   15        7.229098   1.000000
   16        7.504909   1.000000
   17        8.154023   1.000000
   18        9.045357   1.000000
   19        9.170118   1.000000
   20        9.763487   1.000000
   21       10.528943   1.000000
   22       10.854360   1.000000
   23       11.162105   1.000012
   24       11.317133   1.000851
   25       11.484344   1.017188
   26       15.274096  -0.000000
   27       16.056218  -0.000000
   28       17.684699   0.000000
   29       21.282747   0.000000
   30       21.625792   0.000000
