 vasp.6.2.0 18Jan21 (build Mar 17 2021 09:06:54) complex                        
  
 POSCAR found type information on POSCAR PdIrPtCu
 POSCAR found :  4 types and       4 ions
 LDA part: xc-table for Pade appr. of Perdew
 found WAVECAR, reading the header
 POSCAR, INCAR and KPOINTS ok, starting setup
 FFT: planning ...
 reading WAVECAR
 the WAVECAR file was read successfully
 charge-density read from file: unknown                                 
 entering main loop
       N       E                     dE             d eps       ncg     rms          rms(c)
DAV:   1     0.313359456921E+03    0.31336E+03   -0.10542E-03  1694   0.161E-01    0.608E-02
DAV:   2     0.313370641266E+03    0.11184E-01   -0.13303E-03  1688   0.176E-01    0.680E-02
DAV:   3     0.313370689718E+03    0.48452E-04   -0.92944E-05  1680   0.523E-02    0.246E-02
DAV:   4     0.313370691191E+03    0.14732E-05   -0.48009E-06  1650   0.101E-02    0.194E-02
DAV:   5     0.313370691170E+03   -0.21905E-07   -0.10345E-07   828   0.150E-03
   1 F= 0.31337069E+03 E0= 0.31337115E+03  d E =-.136340E-02
 writing wavefunctions
