unknown system                          
   1.00000000000000     
     3.635000    0.000000    0.000000
     0.000000    3.635000    0.000000
     0.000000    0.000000    3.635000
   Pd   Ir   Pt   Cu
     1     1     1     1
Direct
  0.000000  0.000000  0.000000
  0.500000  0.500000  0.000000
  0.500000  0.000000  0.500000
  0.000000  0.500000  0.500000
 
   32   32   32
  296.99      284.86      253.32      212.87      171.89      133.20      97.017      65.230      41.384      27.099    
  19.756      15.387      12.910      11.626      10.948      10.559      10.418      10.559      10.948      11.626    
  12.910      15.387      19.756      27.099      41.384      65.230      97.017      133.20      171.89      212.87    
  253.32      284.86      285.01      273.44      243.30      204.52      165.11      127.85      93.102      62.751    
  40.129      26.637      19.627      15.409      13.020      11.780      11.125      10.750      10.614      10.750    
  11.125      11.780      13.020      15.409      19.627      26.637      40.129      62.751      93.102      127.85    
  165.11      204.52      243.30      273.44      253.41      243.26      216.71      182.26      146.94      113.49    
  82.628      56.168      36.837      25.441      19.297      15.512      13.378      12.275      11.696      11.365    
  11.246      11.365      11.696      12.275      13.378      15.512      19.297      25.441      36.837      56.168    
  82.628      113.49      146.94      182.26      216.71      243.26      211.80      203.43      181.38      152.44    
  122.45      94.165      68.668      47.549      32.641      23.959      18.930      15.805      14.082      13.220    
  12.789      12.552      12.467      12.552      12.789      13.220      14.082      15.805      18.930      23.959    
  32.641      47.549      68.668      94.165      122.45      152.44      181.38      203.43      168.68      162.05    
  144.44      121.07      96.736      74.121      54.517      39.101      28.713      22.621      18.771      16.483    
  15.322      14.834      14.660      14.589      14.565      14.589      14.660      14.834      15.322      16.483    
  18.771      22.621      28.713      39.101      54.517      74.121      96.736      121.07      144.44      162.05    
  128.13      123.08      109.63      91.679      73.082      56.269      42.453      32.280      25.741      21.673    
  19.107      17.802      17.368      17.425      17.658      17.860      17.935      17.860      17.658      17.425    
  17.368      17.802      19.107      21.673      25.741      32.280      42.453      56.269      73.082      91.679    
  109.63      123.08      91.641      88.095      78.633      66.043      53.207      42.044      33.438      27.538    
  23.790      21.378      20.196      20.005      20.495      21.389      22.371      23.119      23.397      23.119    
  22.371      21.389      20.495      20.005      20.196      21.378      23.790      27.538      33.438      42.044    
  53.207      66.043      78.633      88.095      61.143      58.973      53.206      45.625      38.104      31.885    
  27.424      24.522      22.690      21.934      22.194      23.372      25.298      27.646      29.935      31.613    
  32.230      31.613      29.935      27.646      25.298      23.372      22.194      21.934      22.690      24.522    
  27.424      31.885      38.104      45.625      53.206      58.973      39.020      37.949      35.132      31.512    
  28.069      25.406      23.620      22.615      22.528      23.413      25.376      28.401      32.274      36.543    
  40.512      43.361      44.401      43.361      40.512      36.543      32.274      28.401      25.376      23.413    
  22.528      22.615      23.620      25.406      28.069      31.512      35.132      37.949      25.776      25.394    
  24.403      23.172      22.062      21.294      21.124      21.761      23.309      26.000      29.954      35.058    
  40.991      47.183      52.778      56.740      58.179      56.740      52.778      47.183      40.991      35.058    
  29.954      26.000      23.309      21.761      21.124      21.294      22.062      23.172      24.403      25.394    
  18.704      18.613      18.385      18.159      18.148      18.613      19.798      21.859      25.082      29.735    
  35.738      42.769      50.392      58.020      64.784      69.548      71.278      69.548      64.784      58.020    
  50.392      42.769      35.738      29.735      25.082      21.859      19.798      18.613      18.148      18.159    
  18.385      18.613      14.357      14.401      14.564      14.946      15.723      17.133      19.401      22.787    
  27.781      34.443      42.346      50.890      59.594      68.027      75.464      80.745      82.677      80.745    
  75.464      68.027      59.594      50.890      42.346      34.443      27.781      22.787      19.401      17.133    
  15.723      14.946      14.564      14.401      11.808      11.931      12.326      13.086      14.390      16.491    
  19.637      24.367      31.183      39.814      49.395      59.063      68.422      77.362      85.379      91.216    
  93.386      91.216      85.379      77.362      68.422      59.063      49.395      39.814      31.183      24.367    
  19.637      16.491      14.390      13.086      12.326      11.931      10.424      10.586      11.103      12.081    
  13.729      16.334      20.251      26.307      34.896      45.375      56.445      67.065      77.062      86.727    
  95.727      102.51      105.08      102.51      95.727      86.727      77.062      67.065      56.445      45.375    
  34.896      26.307      20.251      16.334      13.729      12.081      11.103      10.586      9.6590      9.8403    
  10.422      11.531      13.409      16.381      20.968      28.197      38.337      50.405      62.763      74.301    
  85.130      95.922      106.39      114.51      117.64      114.51      106.39      95.922      85.130      74.301    
  62.763      50.405      38.337      28.197      20.968      16.381      13.409      11.531      10.422      9.8403    
  9.2167      9.4090      10.028      11.217      13.242      16.454      21.523      29.583      40.806      53.985    
  67.273      79.561      91.202      103.13      115.01      124.39      128.01      124.39      115.01      103.13    
  91.202      79.561      67.273      53.985      40.806      29.583      21.523      16.454      13.242      11.217    
  10.028      9.4090      9.0587      9.2550      9.8881      11.106      13.184      16.483      21.730      30.092    
  41.707      55.290      68.924      81.511      93.498      105.91      118.39      128.28      132.11      128.28    
  118.39      105.91      93.498      81.511      68.924      55.290      41.707      30.092      21.730      16.483    
  13.184      11.106      9.8881      9.2550      9.2167      9.4090      10.028      11.217      13.242      16.454    
  21.523      29.583      40.806      53.985      67.273      79.561      91.202      103.13      115.01      124.39    
  128.01      124.39      115.01      103.13      91.202      79.561      67.273      53.985      40.806      29.583    
  21.523      16.454      13.242      11.217      10.028      9.4090      9.6590      9.8403      10.422      11.531    
  13.409      16.381      20.968      28.197      38.337      50.405      62.763      74.301      85.130      95.922    
  106.39      114.51      117.64      114.51      106.39      95.922      85.130      74.301      62.763      50.405    
  38.337      28.197      20.968      16.381      13.409      11.531      10.422      9.8403      10.424      10.586    
  11.103      12.081      13.729      16.334      20.251      26.307      34.896      45.375      56.445      67.065    
  77.062      86.727      95.727      102.51      105.08      102.51      95.727      86.727      77.062      67.065    
  56.445      45.375      34.896      26.307      20.251      16.334      13.729      12.081      11.103      10.586    
  11.808      11.931      12.326      13.086      14.390      16.491      19.637      24.367      31.183      39.814    
  49.395      59.063      68.422      77.362      85.379      91.216      93.386      91.216      85.379      77.362    
  68.422      59.063      49.395      39.814      31.183      24.367      19.637      16.491      14.390      13.086    
  12.326      11.931      14.357      14.401      14.564      14.946      15.723      17.133      19.401      22.787    
  27.781      34.443      42.346      50.890      59.594      68.027      75.464      80.745      82.677      80.745    
  75.464      68.027      59.594      50.890      42.346      34.443      27.781      22.787      19.401      17.133    
  15.723      14.946      14.564      14.401      18.704      18.613      18.385      18.159      18.148      18.613    
  19.798      21.859      25.082      29.735      35.738      42.769      50.392      58.020      64.784      69.548    
  71.278      69.548      64.784      58.020      50.392      42.769      35.738      29.735      25.082      21.859    
  19.798      18.613      18.148      18.159      18.385      18.613      25.776      25.394      24.403      23.172    
  22.062      21.294      21.124      21.761      23.309      26.000      29.954      35.058      40.991      47.183    
  52.778      56.740      58.179      56.740      52.778      47.183      40.991      35.058      29.954      26.000    
  23.309      21.761      21.124      21.294      22.062      23.172      24.403      25.394      39.020      37.949    
  35.132      31.512      28.069      25.406      23.620      22.615      22.528      23.413      25.376      28.401    
  32.274      36.543      40.512      43.361      44.401      43.361      40.512      36.543      32.274      28.401    
  25.376      23.413      22.528      22.615      23.620      25.406      28.069      31.512      35.132      37.949    
  61.143      58.973      53.206      45.625      38.104      31.885      27.424      24.522      22.690      21.934    
  22.194      23.372      25.298      27.646      29.935      31.613      32.230      31.613      29.935      27.646    
  25.298      23.372      22.194      21.934      22.690      24.522      27.424      31.885      38.104      45.625    
  53.206      58.973      91.641      88.095      78.633      66.043      53.207      42.044      33.438      27.538    
  23.790      21.378      20.196      20.005      20.495      21.389      22.371      23.119      23.397      23.119    
  22.371      21.389      20.495      20.005      20.196      21.378      23.790      27.538      33.438      42.044    
  53.207      66.043      78.633      88.095      128.13      123.08      109.63      91.679      73.082      56.269    
  42.453      32.280      25.741      21.673      19.107      17.802      17.368      17.425      17.658      17.860    
  17.935      17.860      17.658      17.425      17.368      17.802      19.107      21.673      25.741      32.280    
  42.453      56.269      73.082      91.679      109.63      123.08      168.68      162.05      144.44      121.07    
  96.736      74.121      54.517      39.101      28.713      22.621      18.771      16.483      15.322      14.834    
  14.660      14.589      14.565      14.589      14.660      14.834      15.322      16.483      18.771      22.621    
  28.713      39.101      54.517      74.121      96.736      121.07      144.44      162.05      211.80      203.43    
  181.38      152.44      122.45      94.165      68.668      47.549      32.641      23.959      18.930      15.805    
  14.082      13.220      12.789      12.552      12.467      12.552      12.789      13.220      14.082      15.805    
  18.930      23.959      32.641      47.549      68.668      94.165      122.45      152.44      181.38      203.43    
  253.41      243.26      216.71      182.26      146.94      113.49      82.628      56.168      36.837      25.441    
  19.297      15.512      13.378      12.275      11.696      11.365      11.246      11.365      11.696      12.275    
  13.378      15.512      19.297      25.441      36.837      56.168      82.628      113.49      146.94      182.26    
  216.71      243.26      285.01      273.44      243.30      204.52      165.11      127.85      93.102      62.751    
  40.129      26.637      19.627      15.409      13.020      11.780      11.125      10.750      10.614      10.750    
  11.125      11.780      13.020      15.409      19.627      26.637      40.129      62.751      93.102      127.85    
  165.11      204.52      243.30      273.44      285.14      273.58      243.49      204.75      165.33      128.02    
  93.202      62.788      40.130      26.628      19.620      15.408      13.023      11.787      11.134      10.760    
  10.624      10.760      11.134      11.787      13.023      15.408      19.620      26.628      40.130      62.788    
  93.202      128.02      165.33      204.75      243.49      273.58      274.01      262.97      234.14      196.93    
  158.94      122.96      89.498      60.447      38.949      26.192      19.495      15.430      13.130      11.938    
  11.307      10.946      10.816      10.946      11.307      11.938      13.130      15.430      19.495      26.192    
  38.949      60.447      89.498      122.96      158.94      196.93      234.14      262.97      244.53      234.78    
  209.24      175.99      141.77      109.36      79.576      54.225      35.849      25.063      19.174      15.529    
  13.478      12.419      11.863      11.546      11.432      11.546      11.863      12.419      13.478      15.529    
  19.174      25.063      35.849      54.225      79.576      109.36      141.77      175.99      209.24      234.78    
  205.35      197.24      175.86      147.71      118.49      90.976      66.319      46.068      31.892      23.654    
  18.815      15.812      14.161      13.337      12.926      12.701      12.620      12.701      12.926      13.337    
  14.161      15.812      18.815      23.654      31.892      46.068      66.319      90.976      118.49      147.71    
  175.86      197.24      164.16      157.69      140.50      117.65      93.852      71.809      52.839      38.058    
  28.175      22.362      18.657      16.466      15.361      14.902      14.743      14.681      14.659      14.681    
  14.743      14.902      15.361      16.466      18.657      22.362      28.175      38.058      52.839      71.809    
  93.852      117.65      140.50      157.69      124.87      119.93      106.77      89.200      71.022      54.659    
  41.313      31.573      25.343      21.432      18.976      17.740      17.343      17.415      17.654      17.856    
  17.931      17.856      17.654      17.415      17.343      17.740      18.976      21.432      25.343      31.573    
  41.313      54.659      71.022      89.200      106.77      119.93      89.244      85.783      76.548      64.270    
  51.779      40.966      32.686      27.046      23.448      21.137      20.024      19.872      20.368      21.244    
  22.197      22.921      23.190      22.921      22.197      21.244      20.368      19.872      20.024      21.137    
  23.448      27.046      32.686      40.966      51.779      64.270      76.548      85.783      59.497      57.391    
  51.798      44.454      37.186      31.200      26.924      24.131      22.371      21.670      21.956      23.118    
  24.991      27.262      29.470      31.087      31.681      31.087      29.470      27.262      24.991      23.118    
  21.956      21.670      22.371      24.131      26.924      31.200      37.186      44.454      51.798      57.391    
  38.065      37.035      34.324      30.843      27.536      24.976      23.244      22.276      22.216      23.103    
  25.026      27.970      31.723      35.849      39.677      42.420      43.420      42.420      39.677      35.849    
  31.723      27.970      25.026      23.103      22.216      22.276      23.244      24.976      27.536      30.843    
  34.324      37.035      25.335      24.968      24.017      22.829      21.745      20.989      20.825      21.457    
  22.982      25.611      29.466      34.435      40.196      46.190      51.587      55.399      56.782      55.399    
  51.587      46.190      40.196      34.435      29.466      25.611      22.982      21.457      20.825      20.989    
  21.745      22.829      24.017      24.968      18.510      18.420      18.193      17.966      17.951      18.400    
  19.557      21.573      24.714      29.255      35.123      41.995      49.422      56.817      63.336      67.907    
  69.564      67.907      63.336      56.817      49.422      41.995      35.123      29.255      24.714      21.573    
  19.557      18.400      17.951      17.966      18.193      18.420      14.296      14.338      14.494      14.862    
  15.615      16.985      19.198      22.494      27.360      33.881      41.645      50.041      58.553      66.726    
  73.864      78.893      80.727      78.893      73.864      66.726      58.553      50.041      41.645      33.881    
  27.360      22.494      19.198      16.985      15.615      14.862      14.494      14.338      11.838      11.956    
  12.339      13.075      14.340      16.384      19.450      24.052      30.708      39.192      48.657      58.210    
  67.384      76.016      83.639      89.130      91.161      89.130      83.639      76.016      67.384      58.210    
  48.657      39.192      30.708      24.052      19.450      16.384      14.340      13.075      12.339      11.956    
  10.509      10.666      11.166      12.115      13.715      16.253      20.066      25.962      34.375      44.715    
  55.703      66.239      76.034      85.298      93.753      100.05      102.42      100.05      93.753      85.298    
  76.034      66.239      55.703      44.715      34.375      25.962      20.066      16.253      13.715      12.115    
  11.166      10.666      9.7781      9.9536      10.517      11.592      13.418      16.316      20.779      27.826    
  37.779      49.722      62.027      73.494      84.075      94.338      104.07      111.54      114.40      111.54    
  104.07      94.338      84.075      73.494      62.027      49.722      37.779      27.826      20.779      16.316    
  13.418      11.592      10.517      9.9536      9.3570      9.5430      10.142      11.295      13.264      16.398    
  21.329      29.192      40.225      53.288      66.540      78.756      90.097      101.38      112.37      120.95    
  124.26      120.95      112.37      101.38      90.097      78.756      66.540      53.288      40.225      29.192    
  21.329      16.398      13.264      11.295      10.142      9.5430      9.2068      9.3966      10.009      11.191    
  13.211      16.430      21.534      29.695      41.118      54.589      68.192      80.703      92.368      104.09    
  115.61      124.65      128.14      124.65      115.61      104.09      92.368      80.703      68.192      54.589    
  41.118      29.695      21.534      16.430      13.211      11.191      10.009      9.3966      9.3570      9.5430    
  10.142      11.295      13.264      16.398      21.329      29.192      40.225      53.288      66.540      78.756    
  90.097      101.38      112.37      120.95      124.26      120.95      112.37      101.38      90.097      78.756    
  66.540      53.288      40.225      29.192      21.329      16.398      13.264      11.295      10.142      9.5430    
  9.7781      9.9536      10.517      11.592      13.418      16.316      20.779      27.826      37.779      49.722    
  62.027      73.494      84.075      94.338      104.07      111.54      114.40      111.54      104.07      94.338    
  84.075      73.494      62.027      49.722      37.779      27.826      20.779      16.316      13.418      11.592    
  10.517      9.9536      10.509      10.666      11.166      12.115      13.715      16.253      20.066      25.962    
  34.375      44.715      55.703      66.239      76.034      85.298      93.753      100.05      102.42      100.05    
  93.753      85.298      76.034      66.239      55.703      44.715      34.375      25.962      20.066      16.253    
  13.715      12.115      11.166      10.666      11.838      11.956      12.339      13.075      14.340      16.384    
  19.450      24.052      30.708      39.192      48.657      58.210      67.384      76.016      83.639      89.130    
  91.161      89.130      83.639      76.016      67.384      58.210      48.657      39.192      30.708      24.052    
  19.450      16.384      14.340      13.075      12.339      11.956      14.296      14.338      14.494      14.862    
  15.615      16.985      19.198      22.494      27.360      33.881      41.645      50.041      58.553      66.726    
  73.864      78.893      80.727      78.893      73.864      66.726      58.553      50.041      41.645      33.881    
  27.360      22.494      19.198      16.985      15.615      14.862      14.494      14.338      18.510      18.420    
  18.193      17.966      17.951      18.400      19.557      21.573      24.714      29.255      35.123      41.995    
  49.422      56.817      63.336      67.907      69.564      67.907      63.336      56.817      49.422      41.995    
  35.123      29.255      24.714      21.573      19.557      18.400      17.951      17.966      18.193      18.420    
  25.335      24.968      24.017      22.829      21.745      20.989      20.825      21.457      22.982      25.611    
  29.466      34.435      40.196      46.190      51.587      55.399      56.782      55.399      51.587      46.190    
  40.196      34.435      29.466      25.611      22.982      21.457      20.825      20.989      21.745      22.829    
  24.017      24.968      38.065      37.035      34.324      30.843      27.536      24.976      23.244      22.276    
  22.216      23.103      25.026      27.970      31.723      35.849      39.677      42.420      43.420      42.420    
  39.677      35.849      31.723      27.970      25.026      23.103      22.216      22.276      23.244      24.976    
  27.536      30.843      34.324      37.035      59.497      57.391      51.798      44.454      37.186      31.200    
  26.924      24.131      22.371      21.670      21.956      23.118      24.991      27.262      29.470      31.087    
  31.681      31.087      29.470      27.262      24.991      23.118      21.956      21.670      22.371      24.131    
  26.924      31.200      37.186      44.454      51.798      57.391      89.244      85.783      76.548      64.270    
  51.779      40.966      32.686      27.046      23.448      21.137      20.024      19.872      20.368      21.244    
  22.197      22.921      23.190      22.921      22.197      21.244      20.368      19.872      20.024      21.137    
  23.448      27.046      32.686      40.966      51.779      64.270      76.548      85.783      124.87      119.93    
  106.77      89.200      71.022      54.659      41.313      31.573      25.343      21.432      18.976      17.740    
  17.343      17.415      17.654      17.856      17.931      17.856      17.654      17.415      17.343      17.740    
  18.976      21.432      25.343      31.573      41.313      54.659      71.022      89.200      106.77      119.93    
  164.16      157.69      140.50      117.65      93.852      71.809      52.839      38.058      28.175      22.362    
  18.657      16.466      15.361      14.902      14.743      14.681      14.659      14.681      14.743      14.902    
  15.361      16.466      18.657      22.362      28.175      38.058      52.839      71.809      93.852      117.65    
  140.50      157.69      205.35      197.24      175.86      147.71      118.49      90.976      66.319      46.068    
  31.892      23.654      18.815      15.812      14.161      13.337      12.926      12.701      12.620      12.701    
  12.926      13.337      14.161      15.812      18.815      23.654      31.892      46.068      66.319      90.976    
  118.49      147.71      175.86      197.24      244.53      234.78      209.24      175.99      141.77      109.36    
  79.576      54.225      35.849      25.063      19.174      15.529      13.478      12.419      11.863      11.546    
  11.432      11.546      11.863      12.419      13.478      15.529      19.174      25.063      35.849      54.225    
  79.576      109.36      141.77      175.99      209.24      234.78      274.01      262.97      234.14      196.93    
  158.94      122.96      89.498      60.447      38.949      26.192      19.495      15.430      13.130      11.938    
  11.307      10.946      10.816      10.946      11.307      11.938      13.130      15.430      19.495      26.192    
  38.949      60.447      89.498      122.96      158.94      196.93      234.14      262.97      253.78      243.70    
  217.32      182.99      147.65      114.03      82.928      56.267      36.826      25.402      19.267      15.497    
  13.376      12.282      11.707      11.379      11.260      11.379      11.707      12.282      13.376      15.497    
  19.267      25.402      36.826      56.267      82.928      114.03      147.65      182.99      217.32      243.70    
  244.78      235.09      209.66      176.50      142.27      109.73      79.780      54.290      35.838      25.033    
  19.150      15.516      13.474      12.420      11.866      11.550      11.437      11.550      11.866      12.420    
  13.474      15.516      19.150      25.033      35.838      54.290      79.780      109.73      142.27      176.50    
  209.66      235.09      220.59      211.89      188.98      158.89      127.66      98.098      71.314      49.024    
  33.237      24.069      18.851      15.603      13.790      12.860      12.376      12.102      12.004      12.102    
  12.376      12.860      13.790      15.603      18.851      24.069      33.237      49.024      71.314      98.098    
  127.66      158.89      188.98      211.89      187.48      180.09      160.51      134.56      107.52      82.200    
  59.925      42.091      29.902      22.838      18.513      15.854      14.408      13.697      13.349      13.160    
  13.093      13.160      13.349      13.697      14.408      15.854      18.513      22.838      29.902      42.091    
  59.925      82.200      107.52      134.56      160.51      180.09      151.24      145.23      129.24      107.92    
  85.729      65.385      48.245      35.242      26.734      21.650      18.353      16.438      15.494      15.120    
  15.007      14.971      14.959      14.971      15.007      15.120      15.494      16.438      18.353      21.650    
  26.734      35.242      48.245      65.385      85.729      107.92      129.24      145.23      115.34      110.74    
  98.455      82.059      65.172      50.163      38.184      29.656      24.256      20.770      18.621      17.581    
  17.288      17.407      17.665      17.876      17.953      17.876      17.665      17.407      17.288      17.581    
  18.621      20.770      24.256      29.656      38.184      50.163      65.172      82.059      98.455      110.74    
  82.238      79.037      70.501      59.181      47.740      37.966      30.624      25.698      22.500      20.471    
  19.555      19.509      20.030      20.864      21.747      22.411      22.656      22.411      21.747      20.864    
  20.030      19.509      19.555      20.471      22.500      25.698      30.624      37.966      47.740      59.181    
  70.501      79.037      54.771      52.858      47.785      41.149      34.627      29.311      25.545      23.043    
  21.489      20.942      21.301      22.424      24.156      26.223      28.216      29.669      30.202      29.669    
  28.216      26.223      24.156      22.424      21.301      20.942      21.489      23.043      25.545      29.311    
  34.627      41.149      47.785      52.858      35.395      34.480      32.075      28.993      26.069      23.789    
  22.197      21.337      21.351      22.246      24.059      26.778      30.206      33.944      37.390      39.848    
  40.743      39.848      37.390      33.944      30.206      26.778      24.059      22.246      21.351      21.337    
  22.197      23.789      26.069      28.993      32.075      34.480      24.122      23.798      22.952      21.879    
  20.861      20.145      20.001      20.619      22.076      24.528      28.101      32.689      37.977      43.430    
  48.297      51.710      52.943      51.710      48.297      43.430      37.977      32.689      28.101      24.528    
  22.076      20.619      20.001      20.145      20.861      21.879      22.952      23.798      17.955      17.868    
  17.650      17.430      17.405      17.817      18.893      20.783      23.690      27.900      33.374      39.791    
  46.680      53.447      59.320      63.387      64.851      63.387      59.320      53.447      46.680      39.791    
  33.374      27.900      23.690      20.783      18.893      17.817      17.405      17.430      17.650      17.868    
  14.105      14.144      14.288      14.625      15.316      16.579      18.634      21.680      26.173      32.269    
  39.612      47.578      55.568      63.062      69.431      73.823      75.406      73.823      69.431      63.062    
  55.568      47.578      39.612      32.269      26.173      21.680      18.634      16.579      15.316      14.625    
  14.288      14.144      11.881      11.991      12.346      13.027      14.195      16.085      18.933      23.166    