unknown system                          
   1.00000000000000     
     3.635000    0.000000    0.000000
     0.000000    3.635000    0.000000
     0.000000    0.000000    3.635000
   Pd   Ir   Pt   Cu
     1     1     1     1
Direct
  0.000000  0.000000  0.000000
  0.500000  0.500000  0.000000
  0.500000  0.000000  0.500000
  0.000000  0.500000  0.500000
 
   32   32   32
 0.29699180819E+03 0.28486206999E+03 0.25332353096E+03 0.21286826125E+03 0.17188778438E+03
 0.13319556532E+03 0.97016978759E+02 0.65230302569E+02 0.41383547720E+02 0.27099443028E+02
 0.19755714406E+02 0.15386745409E+02 0.12909795480E+02 0.11625740000E+02 0.10947842068E+02
 0.10558859637E+02 0.10417949102E+02 0.10558859637E+02 0.10947842068E+02 0.11625740000E+02
 0.12909795480E+02 0.15386745409E+02 0.19755714406E+02 0.27099443028E+02 0.41383547720E+02
 0.65230302569E+02 0.97016978759E+02 0.13319556532E+03 0.17188778438E+03 0.21286826125E+03
 0.25332353096E+03 0.28486206999E+03 0.28501421841E+03 0.27343941341E+03 0.24329808248E+03
 0.20452126389E+03 0.16510723873E+03 0.12784567263E+03 0.93102421200E+02 0.62751310004E+02
 0.40128712911E+02 0.26637026975E+02 0.19626898825E+02 0.15409383457E+02 0.13020015809E+02
 0.11780402518E+02 0.11125423978E+02 0.10749885799E+02 0.10614005713E+02 0.10749885799E+02
 0.11125423978E+02 0.11780402518E+02 0.13020015809E+02 0.15409383457E+02 0.19626898825E+02
 0.26637026975E+02 0.40128712911E+02 0.62751310004E+02 0.93102421200E+02 0.12784567263E+03
 0.16510723873E+03 0.20452126389E+03 0.24329808248E+03 0.27343941341E+03 0.25340552253E+03
 0.24325576556E+03 0.21670556075E+03 0.18226006632E+03 0.14693659934E+03 0.11348739491E+03
 0.82627804698E+02 0.56167551575E+02 0.36836601376E+02 0.25440970228E+02 0.19297177835E+02
 0.15512056000E+02 0.13378461917E+02 0.12275350924E+02 0.11695638442E+02 0.11365458055E+02
 0.11246414309E+02 0.11365458055E+02 0.11695638442E+02 0.12275350924E+02 0.13378461917E+02
 0.15512056000E+02 0.19297177835E+02 0.25440970228E+02 0.36836601376E+02 0.56167551575E+02
 0.82627804698E+02 0.11348739491E+03 0.14693659934E+03 0.18226006632E+03 0.21670556075E+03
 0.24325576556E+03 0.21180110969E+03 0.20343115390E+03 0.18138405875E+03 0.15243739004E+03
 0.12245226471E+03 0.94165064437E+02 0.68667643110E+02 0.47548572420E+02 0.32641204741E+02
 0.23959112662E+02 0.18929932202E+02 0.15805464869E+02 0.14082326118E+02 0.13220374940E+02
 0.12788932200E+02 0.12551680889E+02 0.12466748029E+02 0.12551680889E+02 0.12788932200E+02
 0.13220374940E+02 0.14082326118E+02 0.15805464869E+02 0.18929932202E+02 0.23959112662E+02
 0.32641204741E+02 0.47548572420E+02 0.68667643110E+02 0.94165064437E+02 0.12245226471E+03
 0.15243739004E+03 0.18138405875E+03 0.20343115390E+03 0.16868073924E+03 0.16204622892E+03
 0.14444075098E+03 0.12106789638E+03 0.96735510754E+02 0.74120531513E+02 0.54517485881E+02
 0.39100802114E+02 0.28712752920E+02 0.22620670708E+02 0.18771497984E+02 0.16483206972E+02
 0.15321908648E+02 0.14833887111E+02 0.14659767098E+02 0.14589460766E+02 0.14565177352E+02
 0.14589460766E+02 0.14659767098E+02 0.14833887111E+02 0.15321908648E+02 0.16483206972E+02
 0.18771497984E+02 0.22620670708E+02 0.28712752920E+02 0.39100802114E+02 0.54517485881E+02
 0.74120531513E+02 0.96735510754E+02 0.12106789638E+03 0.14444075098E+03 0.16204622892E+03
 0.12812506039E+03 0.12308145361E+03 0.10963078082E+03 0.91679247931E+02 0.73081715160E+02
 0.56268889493E+02 0.42452985816E+02 0.32280172558E+02 0.25741201602E+02 0.21672867069E+02
 0.19107250529E+02 0.17802132045E+02 0.17368436072E+02 0.17425238465E+02 0.17658485184E+02
 0.17860211682E+02 0.17935116465E+02 0.17860211682E+02 0.17658485184E+02 0.17425238465E+02
 0.17368436072E+02 0.17802132045E+02 0.19107250529E+02 0.21672867069E+02 0.25741201602E+02
 0.32280172558E+02 0.42452985816E+02 0.56268889493E+02 0.73081715160E+02 0.91679247931E+02
 0.10963078082E+03 0.12308145361E+03 0.91641031436E+02 0.88095272761E+02 0.78632886620E+02
 0.66043416978E+02 0.53206557302E+02 0.42043906137E+02 0.33437886992E+02 0.27537701068E+02
 0.23789638923E+02 0.21378338726E+02 0.20196052293E+02 0.20005362833E+02 0.20495015518E+02
 0.21389281184E+02 0.22370927840E+02 0.23118846994E+02 0.23396688343E+02 0.23118846994E+02
 0.22370927840E+02 0.21389281184E+02 0.20495015518E+02 0.20005362833E+02 0.20196052293E+02
 0.21378338726E+02 0.23789638923E+02 0.27537701068E+02 0.33437886992E+02 0.42043906137E+02
 0.53206557302E+02 0.66043416978E+02 0.78632886620E+02 0.88095272761E+02 0.61143146291E+02
 0.58973018987E+02 0.53205962108E+02 0.45625386181E+02 0.38103794816E+02 0.31884684756E+02
 0.27424051198E+02 0.24522215487E+02 0.22689701031E+02 0.21933571242E+02 0.22193679830E+02
 0.23372137897E+02 0.25297909711E+02 0.27645995781E+02 0.29935168382E+02 0.31613129507E+02
 0.32230341964E+02 0.31613129507E+02 0.29935168382E+02 0.27645995781E+02 0.25297909711E+02
 0.23372137897E+02 0.22193679830E+02 0.21933571242E+02 0.22689701031E+02 0.24522215487E+02
 0.27424051198E+02 0.31884684756E+02 0.38103794816E+02 0.45625386181E+02 0.53205962108E+02
 0.58973018987E+02 0.39019936050E+02 0.37949435322E+02 0.35131948170E+02 0.31511829819E+02
 0.28068842296E+02 0.25405649689E+02 0.23620211043E+02 0.22615408154E+02 0.22528133440E+02
 0.23413081045E+02 0.25375996770E+02 0.28401478644E+02 0.32273905665E+02 0.36542573950E+02
 0.40512411159E+02 0.43361145935E+02 0.44400848873E+02 0.43361145935E+02 0.40512411159E+02
 0.36542573950E+02 0.32273905665E+02 0.28401478644E+02 0.25375996770E+02 0.23413081045E+02
 0.22528133440E+02 0.22615408154E+02 0.23620211043E+02 0.25405649689E+02 0.28068842296E+02
 0.31511829819E+02 0.35131948170E+02 0.37949435322E+02 0.25775885690E+02 0.25393705393E+02
 0.24403030071E+02 0.23171922682E+02 0.22061564281E+02 0.21294050166E+02 0.21124124484E+02
 0.21760539155E+02 0.23308805887E+02 0.25999913302E+02 0.29953935780E+02 0.35058430008E+02
 0.40991333007E+02 0.47183401128E+02 0.52778044283E+02 0.56739721332E+02 0.58178696478E+02
 0.56739721332E+02 0.52778044283E+02 0.47183401128E+02 0.40991333007E+02 0.35058430008E+02
 0.29953935780E+02 0.25999913302E+02 0.23308805887E+02 0.21760539155E+02 0.21124124484E+02
 0.21294050166E+02 0.22061564281E+02 0.23171922682E+02 0.24403030071E+02 0.25393705393E+02
 0.18704459393E+02 0.18613044267E+02 0.18385328971E+02 0.18158715343E+02 0.18148325953E+02
 0.18613255232E+02 0.19797802618E+02 0.21858947004E+02 0.25081662377E+02 0.29735356909E+02
 0.35738405774E+02 0.42769399898E+02 0.50391842520E+02 0.58020412399E+02 0.64783680129E+02
 0.69548128782E+02 0.71278372350E+02 0.69548128782E+02 0.64783680129E+02 0.58020412399E+02
 0.50391842520E+02 0.42769399898E+02 0.35738405774E+02 0.29735356909E+02 0.25081662377E+02
 0.21858947004E+02 0.19797802618E+02 0.18613255232E+02 0.18148325953E+02 0.18158715343E+02
 0.18385328971E+02 0.18613044267E+02 0.14356923294E+02 0.14401007766E+02 0.14564132893E+02
 0.14945942489E+02 0.15723291872E+02 0.17133127234E+02 0.19401176854E+02 0.22787152914E+02
 0.27780635304E+02 0.34443451565E+02 0.42346013387E+02 0.50889853549E+02 0.59593847754E+02
 0.68026800103E+02 0.75464356806E+02 0.80745070885E+02 0.82676959076E+02 0.80745070885E+02
 0.75464356806E+02 0.68026800103E+02 0.59593847754E+02 0.50889853549E+02 0.42346013387E+02
 0.34443451565E+02 0.27780635304E+02 0.22787152914E+02 0.19401176854E+02 0.17133127234E+02
 0.15723291872E+02 0.14945942489E+02 0.14564132893E+02 0.14401007766E+02 0.11807925612E+02
 0.11930714230E+02 0.12325830741E+02 0.13085956876E+02 0.14390238104E+02 0.16490749281E+02
 0.19636744534E+02 0.24367353459E+02 0.31182787009E+02 0.39814020678E+02 0.49394810824E+02
 0.59062520534E+02 0.68422019522E+02 0.77361558184E+02 0.85378991366E+02 0.91215943802E+02
 0.93385759977E+02 0.91215943802E+02 0.85378991366E+02 0.77361558184E+02 0.68422019522E+02
 0.59062520534E+02 0.49394810824E+02 0.39814020678E+02 0.31182787009E+02 0.24367353459E+02
 0.19636744534E+02 0.16490749281E+02 0.14390238104E+02 0.13085956876E+02 0.12325830741E+02
 0.11930714230E+02 0.10423592218E+02 0.10585616126E+02 0.11102509357E+02 0.12081277856E+02
 0.13729459172E+02 0.16334465342E+02 0.20250821743E+02 0.26306558583E+02 0.34896177371E+02
 0.45374841185E+02 0.56444825423E+02 0.67065469632E+02 0.77061623203E+02 0.86726692724E+02
 0.95726852037E+02 0.10251311267E+03 0.10508399837E+03 0.10251311267E+03 0.95726852037E+02
 0.86726692724E+02 0.77061623203E+02 0.67065469632E+02 0.56444825423E+02 0.45374841185E+02
 0.34896177371E+02 0.26306558583E+02 0.20250821743E+02 0.16334465342E+02 0.13729459172E+02
 0.12081277856E+02 0.11102509357E+02 0.10585616126E+02 0.96589888859E+01 0.98403232627E+01
 0.10421794561E+02 0.11530878862E+02 0.13409280200E+02 0.16381271896E+02 0.20967761288E+02
 0.28197448676E+02 0.38336814062E+02 0.50405097750E+02 0.62763203835E+02 0.74300823209E+02
 0.85129572326E+02 0.95921935154E+02 0.10638808204E+03 0.11451414280E+03 0.11763549797E+03
 0.11451414280E+03 0.10638808204E+03 0.95921935154E+02 0.85129572326E+02 0.74300823209E+02
 0.62763203835E+02 0.50405097750E+02 0.38336814062E+02 0.28197448676E+02 0.20967761288E+02
 0.16381271896E+02 0.13409280200E+02 0.11530878862E+02 0.10421794561E+02 0.98403232627E+01
 0.92167412220E+01 0.94089807576E+01 0.10028192375E+02 0.11217061320E+02 0.13241896294E+02
 0.16454362460E+02 0.21522875857E+02 0.29582585081E+02 0.40805633639E+02 0.53984640149E+02
 0.67272882559E+02 0.79560865850E+02 0.91202069483E+02 0.10312937413E+03 0.11501135636E+03
 0.12438731748E+03 0.12801369255E+03 0.12438731748E+03 0.11501135636E+03 0.10312937413E+03
 0.91202069483E+02 0.79560865850E+02 0.67272882559E+02 0.53984640149E+02 0.40805633639E+02
 0.29582585081E+02 0.21522875857E+02 0.16454362460E+02 0.13241896294E+02 0.11217061320E+02
 0.10028192375E+02 0.94089807576E+01 0.90586927430E+01 0.92549885206E+01 0.98881179562E+01
 0.11106067176E+02 0.13183703697E+02 0.16483160879E+02 0.21729784328E+02 0.30091891129E+02
 0.41707373605E+02 0.55289670189E+02 0.68924023290E+02 0.81510947785E+02 0.93498318176E+02
 0.10591052405E+03 0.11838564812E+03 0.12827733361E+03 0.13211056179E+03 0.12827733361E+03
 0.11838564812E+03 0.10591052405E+03 0.93498318176E+02 0.81510947785E+02 0.68924023290E+02
 0.55289670189E+02 0.41707373605E+02 0.30091891129E+02 0.21729784328E+02 0.16483160879E+02
 0.13183703697E+02 0.11106067176E+02 0.98881179562E+01 0.92549885206E+01 0.92167412220E+01
 0.94089807576E+01 0.10028192375E+02 0.11217061320E+02 0.13241896294E+02 0.16454362460E+02
 0.21522875857E+02 0.29582585081E+02 0.40805633639E+02 0.53984640149E+02 0.67272882559E+02
 0.79560865850E+02 0.91202069483E+02 0.10312937413E+03 0.11501135636E+03 0.12438731748E+03
 0.12801369255E+03 0.12438731748E+03 0.11501135636E+03 0.10312937413E+03 0.91202069483E+02
 0.79560865850E+02 0.67272882559E+02 0.53984640149E+02 0.40805633639E+02 0.29582585081E+02
 0.21522875857E+02 0.16454362460E+02 0.13241896294E+02 0.11217061320E+02 0.10028192375E+02
 0.94089807576E+01 0.96589888859E+01 0.98403232627E+01 0.10421794561E+02 0.11530878862E+02
 0.13409280200E+02 0.16381271896E+02 0.20967761288E+02 0.28197448676E+02 0.38336814062E+02
 0.50405097750E+02 0.62763203835E+02 0.74300823209E+02 0.85129572326E+02 0.95921935154E+02
 0.10638808204E+03 0.11451414280E+03 0.11763549797E+03 0.11451414280E+03 0.10638808204E+03
 0.95921935154E+02 0.85129572326E+02 0.74300823209E+02 0.62763203835E+02 0.50405097750E+02
 0.38336814062E+02 0.28197448676E+02 0.20967761288E+02 0.16381271896E+02 0.13409280200E+02
 0.11530878862E+02 0.10421794561E+02 0.98403232627E+01 0.10423592218E+02 0.10585616126E+02
 0.11102509357E+02 0.12081277856E+02 0.13729459172E+02 0.16334465342E+02 0.20250821743E+02
 0.26306558583E+02 0.34896177371E+02 0.45374841185E+02 0.56444825423E+02 0.67065469632E+02
 0.77061623203E+02 0.86726692724E+02 0.95726852037E+02 0.10251311267E+03 0.10508399837E+03
 0.10251311267E+03 0.95726852037E+02 0.86726692724E+02 0.77061623203E+02 0.67065469632E+02
 0.56444825423E+02 0.45374841185E+02 0.34896177371E+02 0.26306558583E+02 0.20250821743E+02
 0.16334465342E+02 0.13729459172E+02 0.12081277856E+02 0.11102509357E+02 0.10585616126E+02
 0.11807925612E+02 0.11930714230E+02 0.12325830741E+02 0.13085956876E+02 0.14390238104E+02
 0.16490749281E+02 0.19636744534E+02 0.24367353459E+02 0.31182787009E+02 0.39814020678E+02
 0.49394810824E+02 0.59062520534E+02 0.68422019522E+02 0.77361558184E+02 0.85378991366E+02
 0.91215943802E+02 0.93385759977E+02 0.91215943802E+02 0.85378991366E+02 0.77361558184E+02
 0.68422019522E+02 0.59062520534E+02 0.49394810824E+02 0.39814020678E+02 0.31182787009E+02
 0.24367353459E+02 0.19636744534E+02 0.16490749281E+02 0.14390238104E+02 0.13085956876E+02
 0.12325830741E+02 0.11930714230E+02 0.14356923294E+02 0.14401007766E+02 0.14564132893E+02
 0.14945942489E+02 0.15723291872E+02 0.17133127234E+02 0.19401176854E+02 0.22787152914E+02
 0.27780635304E+02 0.34443451565E+02 0.42346013387E+02 0.50889853549E+02 0.59593847754E+02
 0.68026800103E+02 0.75464356806E+02 0.80745070885E+02 0.82676959076E+02 0.80745070885E+02
 0.75464356806E+02 0.68026800103E+02 0.59593847754E+02 0.50889853549E+02 0.42346013387E+02
 0.34443451565E+02 0.27780635304E+02 0.22787152914E+02 0.19401176854E+02 0.17133127234E+02
 0.15723291872E+02 0.14945942489E+02 0.14564132893E+02 0.14401007766E+02 0.18704459393E+02
 0.18613044267E+02 0.18385328971E+02 0.18158715343E+02 0.18148325953E+02 0.18613255232E+02
 0.19797802618E+02 0.21858947004E+02 0.25081662377E+02 0.29735356909E+02 0.35738405774E+02
 0.42769399898E+02 0.50391842520E+02 0.58020412399E+02 0.64783680129E+02 0.69548128782E+02
 0.71278372350E+02 0.69548128782E+02 0.64783680129E+02 0.58020412399E+02 0.50391842520E+02
 0.42769399898E+02 0.35738405774E+02 0.29735356909E+02 0.25081662377E+02 0.21858947004E+02
 0.19797802618E+02 0.18613255232E+02 0.18148325953E+02 0.18158715343E+02 0.18385328971E+02
 0.18613044267E+02 0.25775885690E+02 0.25393705393E+02 0.24403030071E+02 0.23171922682E+02
 0.22061564281E+02 0.21294050166E+02 0.21124124484E+02 0.21760539155E+02 0.23308805887E+02
 0.25999913302E+02 0.29953935780E+02 0.35058430008E+02 0.40991333007E+02 0.47183401128E+02
 0.52778044283E+02 0.56739721332E+02 0.58178696478E+02 0.56739721332E+02 0.52778044283E+02
 0.47183401128E+02 0.40991333007E+02 0.35058430008E+02 0.29953935780E+02 0.25999913302E+02
 0.23308805887E+02 0.21760539155E+02 0.21124124484E+02 0.21294050166E+02 0.22061564281E+02
 0.23171922682E+02 0.24403030071E+02 0.25393705393E+02 0.39019936050E+02 0.37949435322E+02
 0.35131948170E+02 0.31511829819E+02 0.28068842296E+02 0.25405649689E+02 0.23620211043E+02
 0.22615408154E+02 0.22528133440E+02 0.23413081045E+02 0.25375996770E+02 0.28401478644E+02
 0.32273905665E+02 0.36542573950E+02 0.40512411159E+02 0.43361145935E+02 0.44400848873E+02
 0.43361145935E+02 0.40512411159E+02 0.36542573950E+02 0.32273905665E+02 0.28401478644E+02
 0.25375996770E+02 0.23413081045E+02 0.22528133440E+02 0.22615408154E+02 0.23620211043E+02
 0.25405649689E+02 0.28068842296E+02 0.31511829819E+02 0.35131948170E+02 0.37949435322E+02
 0.61143146291E+02 0.58973018987E+02 0.53205962108E+02 0.45625386181E+02 0.38103794816E+02
 0.31884684756E+02 0.27424051198E+02 0.24522215487E+02 0.22689701031E+02 0.21933571242E+02
 0.22193679830E+02 0.23372137897E+02 0.25297909711E+02 0.27645995781E+02 0.29935168382E+02
 0.31613129507E+02 0.32230341964E+02 0.31613129507E+02 0.29935168382E+02 0.27645995781E+02
 0.25297909711E+02 0.23372137897E+02 0.22193679830E+02 0.21933571242E+02 0.22689701031E+02
 0.24522215487E+02 0.27424051198E+02 0.31884684756E+02 0.38103794816E+02 0.45625386181E+02
 0.53205962108E+02 0.58973018987E+02 0.91641031436E+02 0.88095272761E+02 0.78632886620E+02
 0.66043416978E+02 0.53206557302E+02 0.42043906137E+02 0.33437886992E+02 0.27537701068E+02
 0.23789638923E+02 0.21378338726E+02 0.20196052293E+02 0.20005362833E+02 0.20495015518E+02
 0.21389281184E+02 0.22370927840E+02 0.23118846994E+02 0.23396688343E+02 0.23118846994E+02
 0.22370927840E+02 0.21389281184E+02 0.20495015518E+02 0.20005362833E+02 0.20196052293E+02
 0.21378338726E+02 0.23789638923E+02 0.27537701068E+02 0.33437886992E+02 0.42043906137E+02
 0.53206557302E+02 0.66043416978E+02 0.78632886620E+02 0.88095272761E+02 0.12812506039E+03
 0.12308145361E+03 0.10963078082E+03 0.91679247931E+02 0.73081715160E+02 0.56268889493E+02
 0.42452985816E+02 0.32280172558E+02 0.25741201602E+02 0.21672867069E+02 0.19107250529E+02
 0.17802132045E+02 0.17368436072E+02 0.17425238465E+02 0.17658485184E+02 0.17860211682E+02
 0.17935116465E+02 0.17860211682E+02 0.17658485184E+02 0.17425238465E+02 0.17368436072E+02
 0.17802132045E+02 0.19107250529E+02 0.21672867069E+02 0.25741201602E+02 0.32280172558E+02
 0.42452985816E+02 0.56268889493E+02 0.73081715160E+02 0.91679247931E+02 0.10963078082E+03
 0.12308145361E+03 0.16868073924E+03 0.16204622892E+03 0.14444075098E+03 0.12106789638E+03
 0.96735510754E+02 0.74120531513E+02 0.54517485881E+02 0.39100802114E+02 0.28712752920E+02
 0.22620670708E+02 0.18771497984E+02 0.16483206972E+02 0.15321908648E+02 0.14833887111E+02
 0.14659767098E+02 0.14589460766E+02 0.14565177352E+02 0.14589460766E+02 0.14659767098E+02
 0.14833887111E+02 0.15321908648E+02 0.16483206972E+02 0.18771497984E+02 0.22620670708E+02
 0.28712752920E+02 0.39100802114E+02 0.54517485881E+02 0.74120531513E+02 0.96735510754E+02
 0.12106789638E+03 0.14444075098E+03 0.16204622892E+03 0.21180110969E+03 0.20343115390E+03
 0.18138405875E+03 0.15243739004E+03 0.12245226471E+03 0.94165064437E+02 0.68667643110E+02
 0.47548572420E+02 0.32641204741E+02 0.23959112662E+02 0.18929932202E+02 0.15805464869E+02
 0.14082326118E+02 0.13220374940E+02 0.12788932200E+02 0.12551680889E+02 0.12466748029E+02
 0.12551680889E+02 0.12788932200E+02 0.13220374940E+02 0.14082326118E+02 0.15805464869E+02
 0.18929932202E+02 0.23959112662E+02 0.32641204741E+02 0.47548572420E+02 0.68667643110E+02
 0.94165064437E+02 0.12245226471E+03 0.15243739004E+03 0.18138405875E+03 0.20343115390E+03
 0.25340552253E+03 0.24325576556E+03 0.21670556075E+03 0.18226006632E+03 0.14693659934E+03
 0.11348739491E+03 0.82627804698E+02 0.56167551575E+02 0.36836601376E+02 0.25440970228E+02
 0.19297177835E+02 0.15512056000E+02 0.13378461917E+02 0.12275350924E+02 0.11695638442E+02
 0.11365458055E+02 0.11246414309E+02 0.11365458055E+02 0.11695638442E+02 0.12275350924E+02
 0.13378461917E+02 0.15512056000E+02 0.19297177835E+02 0.25440970228E+02 0.36836601376E+02
 0.56167551575E+02 0.82627804698E+02 0.11348739491E+03 0.14693659934E+03 0.18226006632E+03
 0.21670556075E+03 0.24325576556E+03 0.28501421841E+03 0.27343941341E+03 0.24329808248E+03
 0.20452126389E+03 0.16510723873E+03 0.12784567263E+03 0.93102421200E+02 0.62751310004E+02
 0.40128712911E+02 0.26637026975E+02 0.19626898825E+02 0.15409383457E+02 0.13020015809E+02
 0.11780402518E+02 0.11125423978E+02 0.10749885799E+02 0.10614005713E+02 0.10749885799E+02
 0.11125423978E+02 0.11780402518E+02 0.13020015809E+02 0.15409383457E+02 0.19626898825E+02
 0.26637026975E+02 0.40128712911E+02 0.62751310004E+02 0.93102421200E+02 0.12784567263E+03
 0.16510723873E+03 0.20452126389E+03 0.24329808248E+03 0.27343941341E+03 0.28513608113E+03
 0.27358351530E+03 0.24349124773E+03 0.20475119165E+03 0.16533065444E+03 0.12801741245E+03
 0.93201834225E+02 0.62788318137E+02 0.40130250828E+02 0.26628135167E+02 0.19620218724E+02
 0.15407610130E+02 0.13022903559E+02 0.11786798437E+02 0.11134124940E+02 0.10759891312E+02
 0.10624438040E+02 0.10759891312E+02 0.11134124940E+02 0.11786798437E+02 0.13022903559E+02
 0.15407610130E+02 0.19620218724E+02 0.26628135167E+02 0.40130250828E+02 0.62788318137E+02
 0.93201834225E+02 0.12801741245E+03 0.16533065444E+03 0.20475119165E+03 0.24349124773E+03
 0.27358351530E+03 0.27401337842E+03 0.26296513797E+03 0.23414234427E+03 0.19692904987E+03
 0.15894298031E+03 0.12295972286E+03 0.89498406772E+02 0.60447289376E+02 0.38949127581E+02
 0.26192402534E+02 0.19494859501E+02 0.15429568813E+02 0.13130148142E+02 0.11937521077E+02
 0.11307361476E+02 0.10946304173E+02 0.10815762717E+02 0.10946304173E+02 0.11307361476E+02
 0.11937521077E+02 0.13130148142E+02 0.15429568813E+02 0.19494859501E+02 0.26192402534E+02
 0.38949127581E+02 0.60447289376E+02 0.89498406772E+02 0.12295972286E+03 0.15894298031E+03
 0.19692904987E+03 0.23414234427E+03 0.26296513797E+03 0.24452889033E+03 0.23478123939E+03
 0.20923674040E+03 0.17598609436E+03 0.14177206788E+03 0.10935671989E+03 0.79575870436E+02
 0.54225375855E+02 0.35848560961E+02 0.25062750636E+02 0.19173717644E+02 0.15528868828E+02
 0.13478388072E+02 0.12419181405E+02 0.11862879485E+02 0.11546289939E+02 0.11432213589E+02
 0.11546289939E+02 0.11862879485E+02 0.12419181405E+02 0.13478388072E+02 0.15528868828E+02
 0.19173717644E+02 0.25062750636E+02 0.35848560961E+02 0.54225375855E+02 0.79575870436E+02
 0.10935671989E+03 0.14177206788E+03 0.17598609436E+03 0.20923674040E+03 0.23478123939E+03
 0.20534761777E+03 0.19724207508E+03 0.17585784494E+03 0.14770885034E+03 0.11849489773E+03
 0.90976293786E+02 0.66319021464E+02 0.46068467750E+02 0.31891636179E+02 0.23654215985E+02
 0.18814907251E+02 0.15812105604E+02 0.14160847209E+02 0.13337061623E+02 0.12926015759E+02
 0.12700504109E+02 0.12619824496E+02 0.12700504109E+02 0.12926015759E+02 0.13337061623E+02
 0.14160847209E+02 0.15812105604E+02 0.18814907251E+02 0.23654215985E+02 0.31891636179E+02
 0.46068467750E+02 0.66319021464E+02 0.90976293786E+02 0.11849489773E+03 0.14770885034E+03
 0.17585784494E+03 0.19724207508E+03 0.16416115974E+03 0.15768986484E+03 0.14049956941E+03
 0.11764597309E+03 0.93851561713E+02 0.71809018295E+02 0.52839350906E+02 0.38057540169E+02
 0.28175181340E+02 0.22361785039E+02 0.18656711701E+02 0.16466115380E+02 0.15361124106E+02
 0.14902033661E+02 0.14742676274E+02 0.14680603540E+02 0.14659286931E+02 0.14680603540E+02
 0.14742676274E+02 0.14902033661E+02 0.15361124106E+02 0.16466115380E+02 0.18656711701E+02
 0.22361785039E+02 0.28175181340E+02 0.38057540169E+02 0.52839350906E+02 0.71809018295E+02
 0.93851561713E+02 0.11764597309E+03 0.14049956941E+03 0.15768986484E+03 0.12486727303E+03
 0.11993348803E+03 0.10677055138E+03 0.89200133269E+02 0.71021884385E+02 0.54658749710E+02
 0.41313167659E+02 0.31573297367E+02 0.25343288623E+02 0.21431907606E+02 0.18975626678E+02
 0.17739860908E+02 0.17342604773E+02 0.17414936159E+02 0.17653671235E+02 0.17856497507E+02
 0.17931480683E+02 0.17856497507E+02 0.17653671235E+02 0.17414936159E+02 0.17342604773E+02
 0.17739860908E+02 0.18975626678E+02 0.21431907606E+02 0.25343288623E+02 0.31573297367E+02
 0.41313167659E+02 0.54658749710E+02 0.71021884385E+02 0.89200133269E+02 0.10677055138E+03
 0.11993348803E+03 0.89243968725E+02 0.85782934988E+02 0.76547978358E+02 0.64270154370E+02
 0.51778571534E+02 0.40965704289E+02 0.32686399340E+02 0.27045929994E+02 0.23447930010E+02
 0.21136503892E+02 0.20024468902E+02 0.19871918567E+02 0.20367822341E+02 0.21243717159E+02
 0.22197133036E+02 0.22921407727E+02 0.23190214194E+02 0.22921407727E+02 0.22197133036E+02
 0.21243717159E+02 0.20367822341E+02 0.19871918567E+02 0.20024468902E+02 0.21136503892E+02
 0.23447930010E+02 0.27045929994E+02 0.32686399340E+02 0.40965704289E+02 0.51778571534E+02
 0.64270154370E+02 0.76547978358E+02 0.85782934988E+02 0.59496507331E+02 0.57390816845E+02
 0.51797618058E+02 0.44454486113E+02 0.37186213081E+02 0.31200060765E+02 0.26923515496E+02
 0.24131419006E+02 0.22370857916E+02 0.21670019990E+02 0.21955876421E+02 0.23118020234E+02
 0.24990809955E+02 0.27262036213E+02 0.29470415823E+02 0.31087007143E+02 0.31681319079E+02
 0.31087007143E+02 0.29470415823E+02 0.27262036213E+02 0.24990809955E+02 0.23118020234E+02
 0.21955876421E+02 0.21670019990E+02 0.22370857916E+02 0.24131419006E+02 0.26923515496E+02
 0.31200060765E+02 0.37186213081E+02 0.44454486113E+02 0.51797618058E+02 0.57390816845E+02
 0.38065360654E+02 0.37034771691E+02 0.34323567043E+02 0.30843156061E+02 0.27536403852E+02
 0.24976395327E+02 0.23243905021E+02 0.22275971108E+02 0.22215924732E+02 0.23103101699E+02
 0.25026196383E+02 0.27970016266E+02 0.31723487914E+02 0.35849056665E+02 0.39677215736E+02
 0.42420069847E+02 0.43420352794E+02 0.42420069847E+02 0.39677215736E+02 0.35849056665E+02
 0.31723487914E+02 0.27970016266E+02 0.25026196383E+02 0.23103101699E+02 0.22215924732E+02
 0.22275971108E+02 0.23243905021E+02 0.24976395327E+02 0.27536403852E+02 0.30843156061E+02
 0.34323567043E+02 0.37034771691E+02 0.25335117057E+02 0.24968499095E+02 0.24016882949E+02
 0.22829327391E+02 0.21745243173E+02 0.20989339840E+02 0.20825297836E+02 0.21457490416E+02
 0.22981792412E+02 0.25610625401E+02 0.29465716775E+02 0.34435006964E+02 0.40196330392E+02
 0.46189541293E+02 0.51586737123E+02 0.55398917850E+02 0.56781722324E+02 0.55398917850E+02
 0.51586737123E+02 0.46189541293E+02 0.40196330392E+02 0.34435006964E+02 0.29465716775E+02
 0.25610625401E+02 0.22981792412E+02 0.21457490416E+02 0.20825297836E+02 0.20989339840E+02
 0.21745243173E+02 0.22829327391E+02 0.24016882949E+02 0.24968499095E+02 0.18510469905E+02
 0.18419623867E+02 0.18193076564E+02 0.17966286879E+02 0.17950657117E+02 0.18400478487E+02
 0.19556598882E+02 0.21573090505E+02 0.24713903335E+02 0.29254523395E+02 0.35122722005E+02
 0.41994901829E+02 0.49422499572E+02 0.56817060616E+02 0.63335690417E+02 0.67907367142E+02
 0.69563680387E+02 0.67907367142E+02 0.63335690417E+02 0.56817060616E+02 0.49422499572E+02
 0.41994901829E+02 0.35122722005E+02 0.29254523395E+02 0.24713903335E+02 0.21573090505E+02
 0.19556598882E+02 0.18400478487E+02 0.17950657117E+02 0.17966286879E+02 0.18193076564E+02
 0.18419623867E+02 0.14295665477E+02 0.14337764677E+02 0.14494214844E+02 0.14862343035E+02
 0.15615090504E+02 0.16985184362E+02 0.19197523750E+02 0.22494068265E+02 0.27359782183E+02
 0.33881016397E+02 0.41644635408E+02 0.50040970001E+02 0.58553467478E+02 0.66726226395E+02
 0.73863565914E+02 0.78893479601E+02 0.80726636583E+02 0.78893479601E+02 0.73863565914E+02
 0.66726226395E+02 0.58553467478E+02 0.50040970001E+02 0.41644635408E+02 0.33881016397E+02
 0.27359782183E+02 0.22494068265E+02 0.19197523750E+02 0.16985184362E+02 0.15615090504E+02
 0.14862343035E+02 0.14494214844E+02 0.14337764677E+02 0.11837668566E+02 0.11956419012E+02
 0.12338710648E+02 0.13074946938E+02 0.14340489861E+02 0.16383952349E+02 0.19450430276E+02
 0.24051606877E+02 0.30708450452E+02 0.39192188703E+02 0.48656778249E+02 0.58209544579E+02
 0.67384141054E+02 0.76016128163E+02 0.83639007360E+02 0.89129782619E+02 0.91160671664E+02
 0.89129782619E+02 0.83639007360E+02 0.76016128163E+02 0.67384141054E+02 0.58209544579E+02
 0.48656778249E+02 0.39192188703E+02 0.30708450452E+02 0.24051606877E+02 0.19450430276E+02
 0.16383952349E+02 0.14340489861E+02 0.13074946938E+02 0.12338710648E+02 0.11956419012E+02
 0.10508744894E+02 0.10665540047E+02 0.11165998940E+02 0.12114745975E+02 0.13715477006E+02
 0.16252871797E+02 0.20066378472E+02 0.25962005063E+02 0.34375092788E+02 0.44715268114E+02
 0.55702980070E+02 0.66239280262E+02 0.76033644164E+02 0.85298250425E+02 0.93753164074E+02
 0.10005083682E+03 0.10242425749E+03 0.10005083682E+03 0.93753164074E+02 0.85298250425E+02
 0.76033644164E+02 0.66239280262E+02 0.55702980070E+02 0.44715268114E+02 0.34375092788E+02
 0.25962005063E+02 0.20066378472E+02 0.16252871797E+02 0.13715477006E+02 0.12114745975E+02
 0.11165998940E+02 0.10665540047E+02 0.97781363796E+01 0.99535733694E+01 0.10516546877E+02
 0.11591999494E+02 0.13417702519E+02 0.16315833451E+02 0.20778592140E+02 0.27826012515E+02
 0.37779299070E+02 0.49722398265E+02 0.62027411451E+02 0.73493988785E+02 0.84074690498E+02
 0.94337501187E+02 0.10407308229E+03 0.11154345473E+03 0.11439989644E+03 0.11154345473E+03
 0.10407308229E+03 0.94337501187E+02 0.84074690498E+02 0.73493988785E+02 0.62027411451E+02
 0.49722398265E+02 0.37779299070E+02 0.27826012515E+02 0.20778592140E+02 0.16315833451E+02
 0.13417702519E+02 0.11591999494E+02 0.10516546877E+02 0.99535733694E+01 0.93570477549E+01
 0.95429686510E+01 0.10142388765E+02 0.11295384668E+02 0.13264331419E+02 0.16398321394E+02
 0.21328917283E+02 0.29192474947E+02 0.40224614794E+02 0.53288304438E+02 0.66540362135E+02
 0.78755843235E+02 0.90096893899E+02 0.10137733048E+03 0.11237056359E+03 0.12095197439E+03
 0.12425798542E+03 0.12095197439E+03 0.11237056359E+03 0.10137733048E+03 0.90096893899E+02
 0.78755843235E+02 0.66540362135E+02 0.53288304438E+02 0.40224614794E+02 0.29192474947E+02
 0.21328917283E+02 0.16398321394E+02 0.13264331419E+02 0.11295384668E+02 0.10142388765E+02
 0.95429686510E+01 0.92067684659E+01 0.93965824721E+01 0.10009425456E+02 0.11190662503E+02
 0.13211250547E+02 0.16430342986E+02 0.21534010015E+02 0.29695144546E+02 0.41118164926E+02
 0.54588582302E+02 0.68191879295E+02 0.80703375043E+02 0.92367702297E+02 0.10408531844E+03
 0.11560904106E+03 0.12465183238E+03 0.12814310331E+03 0.12465183238E+03 0.11560904106E+03
 0.10408531844E+03 0.92367702297E+02 0.80703375043E+02 0.68191879295E+02 0.54588582302E+02
 0.41118164926E+02 0.29695144546E+02 0.21534010015E+02 0.16430342986E+02 0.13211250547E+02
 0.11190662503E+02 0.10009425456E+02 0.93965824721E+01 0.93570477549E+01 0.95429686510E+01
 0.10142388765E+02 0.11295384668E+02 0.13264331419E+02 0.16398321394E+02 0.21328917283E+02
 0.29192474947E+02 0.40224614794E+02 0.53288304438E+02 0.66540362135E+02 0.78755843235E+02
 0.90096893899E+02 0.10137733048E+03 0.11237056359E+03 0.12095197439E+03 0.12425798542E+03
 0.12095197439E+03 0.11237056359E+03 0.10137733048E+03 0.90096893899E+02 0.78755843235E+02
 0.66540362135E+02 0.53288304438E+02 0.40224614794E+02 0.29192474947E+02 0.21328917283E+02
 0.16398321394E+02 0.13264331419E+02 0.11295384668E+02 0.10142388765E+02 0.95429686510E+01
 0.97781363796E+01 0.99535733694E+01 0.10516546877E+02 0.11591999494E+02 0.13417702519E+02
 0.16315833451E+02 0.20778592140E+02 0.27826012515E+02 0.37779299070E+02 0.49722398265E+02
 0.62027411451E+02 0.73493988785E+02 0.84074690498E+02 0.94337501187E+02 0.10407308229E+03
 0.11154345473E+03 0.11439989644E+03 0.11154345473E+03 0.10407308229E+03 0.94337501187E+02
 0.84074690498E+02 0.73493988785E+02 0.62027411451E+02 0.49722398265E+02 0.37779299070E+02