unknown system                          
   1.00000000000000     
     2.260100    0.000000    0.000000
    -1.130050    1.957304    0.000000
     0.000000    0.000000    3.977000
   Fe
     2
Direct
  0.000000  0.000000  0.000000
  0.333333  0.666667  0.500000
 
   20   20   32
  147.55      140.26      120.54      93.756      66.035      42.185      24.876      14.659      10.249      9.0624    
  8.7683      9.0624      10.249      14.659      24.876      42.185      66.035      93.756      120.54      140.26    
  140.26      140.26      126.78      103.68      76.762      51.468      31.471      18.325      11.618      9.3387    
  8.7587      8.7586      9.3385      11.618      18.325      31.470      51.467      76.765      103.69      126.79    
  120.54      126.76      120.54      103.68      80.711      56.866      36.383      21.673      13.209      9.7227    
  8.7649      8.4826      8.7646      9.7227      13.209      21.672      36.380      56.865      80.713      103.69    
  93.754      103.62      103.62      93.756      76.762      56.866      38.200      23.672      14.494      10.158    
  8.7802      8.2732      8.2730      8.7802      10.159      14.495      23.672      38.198      56.863      76.759    
  66.028      76.669      80.583      76.674      66.035      51.468      36.383      23.672      14.988      10.454    
  8.8009      8.1429      7.9066      8.1428      8.8009      10.454      14.990      23.674      36.383      51.464    
  42.184      51.390      56.729      56.730      51.394      42.185      31.471      21.673      14.494      10.454    
  8.8128      8.0835      7.6915      7.6915      8.0832      8.8119      10.453      14.497      21.677      31.474    
  24.881      31.441      36.301      38.094      36.299      31.437      24.876      18.325      13.209      10.158    
  8.8009      8.0835      7.6221      7.4665      7.6223      8.0828      8.7987      10.156      13.209      18.328    
  14.659      18.336      21.669      23.648      23.646      21.664      18.332      14.659      11.618      9.7227    
  8.7803      8.1429      7.6915      7.4665      7.4670      7.6923      8.1427      8.7780      9.7188      11.615    
  10.244      11.646      13.256      14.547      15.040      14.546      13.256      11.649      10.249      9.3387    
  8.7649      8.2732      7.9065      7.6915      7.6223      7.6923      7.9084      8.2753      8.7649      9.3353    
  9.0622      9.3722      9.7882      10.248      10.557      10.558      10.251      9.7922      9.3754      9.0624    
  8.7587      8.4826      8.2730      8.1428      8.0832      8.0828      8.1427      8.2752      8.4868      8.7620    
  8.7731      8.7992      8.8380      8.8822      8.9244      8.9453      8.9265      8.8843      8.8378      8.7959    
  8.7683      8.7585      8.7646      8.7802      8.8009      8.8119      8.7987      8.7780      8.7649      8.7620    
  9.0622      8.7992      8.5606      8.3832      8.2782      8.2339      8.2343      8.2783      8.3810      8.5565    
  8.7960      9.0624      9.3385      9.7227      10.159      10.454      10.453      10.156      9.7188      9.3353    
  10.244      9.3722      8.8380      8.3832      8.0477      7.8541      7.7924      7.8533      8.0458      8.3811    
  8.8380      9.3756      10.249      11.618      13.209      14.495      14.990      14.497      13.209      11.615    
  14.659      11.646      9.7882      8.8822      8.2782      7.8541      7.6441      7.6437      7.8533      8.2783    
  8.8843      9.7921      11.649      14.659      18.325      21.672      23.672      23.674      21.677      18.328    
  24.881      18.336      13.256      10.248      8.9244      8.2339      7.7924      7.6437      7.7922      8.2346    
  8.9265      10.250      13.256      18.332      24.876      31.470      36.380      38.198      36.383      31.474    
  42.184      31.441      21.669      14.547      10.557      8.9453      8.2343      7.8533      7.8533      8.2346    
  8.9461      10.557      14.545      21.665      31.438      42.185      51.467      56.865      56.863      51.464    
  66.028      51.390      36.301      23.648      15.040      10.558      8.9265      8.2783      8.0458      8.2783    
  8.9265      10.557      15.038      23.646      36.301      51.394      66.035      76.765      80.713      76.759    
  93.754      76.669      56.729      38.094      23.646      14.546      10.251      8.8843      8.3810      8.3811    
  8.8843      10.250      14.545      23.646      38.096      56.732      76.672      93.756      103.69      103.69    
  120.54      103.62      80.583      56.730      36.299      21.664      13.256      9.7922      8.8378      8.5565    
  8.8380      9.7921      13.256      21.665      36.301      56.732      80.580      103.61      120.54      126.79    
  140.26      126.76      103.62      76.674      51.394      31.437      18.332      11.649      9.3754      8.7959    
  8.7960      9.3756      11.649      18.332      31.438      51.394      76.672      103.61      126.75      140.26    
  138.76      131.91      113.37      88.162      62.061      39.637      23.443      13.986      9.9823      8.9040    
  8.6162      8.9041      9.9824      13.986      23.443      39.637      62.061      88.162      113.37      131.91    
  131.91      131.91      119.24      97.500      72.149      48.342      29.582      17.346      11.198      9.1509    
  8.5956      8.5954      9.1507      11.198      17.346      29.581      48.341      72.151      97.506      119.25    
  113.37      119.22      113.37      97.500      75.863      53.409      34.167      20.433      12.629      9.4785    
  8.5952      8.3206      8.5949      9.4786      12.629      20.433      34.165      53.408      75.865      97.505    
  88.160      97.452      97.452      88.162      72.149      53.409      35.865      22.283      13.793      9.8541    
  8.6071      8.1149      8.1147      8.6070      9.8546      13.794      22.283      35.864      53.406      72.146    
  62.054      72.084      75.773      72.089      62.061      48.342      34.167      22.283      14.242      10.112    
  8.6224      7.9882      7.7608      7.9881      8.6224      10.112      14.243      22.285      34.167      48.338    
  39.636      48.298      53.327      53.328      48.301      39.637      29.582      20.433      13.793      10.112    
  8.6312      7.9308      7.5546      7.5547      7.9305      8.6304      10.111      13.795      20.437      29.585    
  23.447      29.585      34.146      35.831      34.144      29.582      23.443      17.346      12.629      9.8541    
  8.6224      7.9308      7.4883      7.3398      7.4886      7.9301      8.6205      9.8522      12.629      17.349    
  13.986      17.388      20.489      22.336      22.334      20.485      17.384      13.986      11.198      9.4785    
  8.6071      7.9882      7.5546      7.3398      7.3402      7.5554      7.9880      8.6050      9.4749      11.195    
  9.9776      11.254      12.732      13.921      14.377      13.920      12.732      11.257      9.9823      9.1509    
  8.5952      8.1149      7.7608      7.5547      7.4886      7.5554      7.7626      8.1168      8.5952      9.1477    
  8.9039      9.2113      9.5963      10.017      10.299      10.300      10.019      9.6000      9.2144      8.9041    
  8.5956      8.3206      8.1147      7.9881      7.9305      7.9301      7.9880      8.1168      8.3244      8.5986    
  8.6206      8.6621      8.7189      8.7801      8.8307      8.8532      8.8326      8.7820      8.7186      8.6590    
  8.6162      8.5954      8.5949      8.6070      8.6224      8.6304      8.6204      8.6050      8.5952      8.5986    
  8.9039      8.6621      8.4485      8.2953      8.2092      8.1751      8.1755      8.2092      8.2933      8.4447    
  8.6591      8.9041      9.1507      9.4786      9.8546      10.112      10.111      9.8522      9.4749      9.1477    
  9.9776      9.2113      8.7189      8.2953      7.9878      7.8130      7.7579      7.8123      7.9861      8.2934    
  8.7189      9.2145      9.9824      11.198      12.629      13.794      14.243      13.795      12.629      11.195    
  13.986      11.254      9.5963      8.7801      8.2092      7.8130      7.6185      7.6181      7.8123      8.2093    
  8.7821      9.5999      11.257      13.986      17.346      20.433      22.283      22.285      20.437      17.349    
  23.447      17.388      12.732      10.017      8.8307      8.1751      7.7579      7.6181      7.7577      8.1757    
  8.8326      10.019      12.731      17.385      23.443      29.581      34.165      35.864      34.167      29.585    
  39.636      29.585      20.489      13.921      10.299      8.8532      8.1755      7.8123      7.8123      8.1757    
  8.8540      10.299      13.919      20.485      29.583      39.637      48.341      53.408      53.406      48.338    
  62.054      48.298      34.146      22.336      14.377      10.300      8.8326      8.2092      7.9861      8.2093    
  8.8326      10.299      14.375      22.334      34.146      48.302      62.061      72.151      75.865      72.146    
  88.160      72.084      53.327      35.831      22.334      13.920      10.019      8.7820      8.2933      8.2934    
  8.7821      10.019      13.919      22.334      35.833      53.330      72.087      88.162      97.506      97.505    
  113.37      97.452      75.773      53.328      34.144      20.485      12.732      9.6000      8.7186      8.4447    
  8.7189      9.5999      12.731      20.485      34.146      53.330      75.771      97.447      113.37      119.25    
  131.91      119.22      97.452      72.089      48.301      29.582      17.384      11.257      9.2144      8.6590    
  8.6591      9.2145      11.257      17.385      29.583      48.302      72.087      97.447      119.21      131.91    
  115.45      109.75      94.317      73.286      51.510      32.918      19.722      12.284      9.3163      8.4734    
  8.2053      8.4734      9.3164      12.284      19.722      32.918      51.510      73.286      94.317      109.75    
  109.76      109.75      99.202      81.062      59.888      40.069      24.638      14.838      10.150      8.6615    
  8.1571      8.1570      8.6614      10.150      14.837      24.637      40.069      59.889      81.066      99.208    
  94.320      99.202      94.317      81.062      62.974      44.248      28.345      17.233      11.167      8.8628    
  8.1374      7.8861      8.1371      8.8628      11.168      17.232      28.344      44.247      62.976      81.066    
  73.284      81.060      81.061      73.286      59.888      44.248      29.724      18.683      12.017      9.0934    
  8.1370      7.6891      7.6890      8.1369      9.0937      12.017      18.683      29.723      44.245      59.885    
  51.505      59.898      62.988      59.902      51.510      40.069      28.345      18.683      12.348      9.2563    
  8.1437      7.5698      7.3680      7.5698      8.1437      9.2568      12.349      18.685      28.345      40.066    
  32.917      40.114      44.310      44.311      40.117      32.918      24.638      17.233      12.017      9.2563    
  8.1472      7.5162      7.1843      7.1844      7.5162      8.1466      9.2562      12.019      17.236      24.640    
  19.725      24.730      28.484      29.877      28.483      24.727      19.722      14.838      11.167      9.0933    
  8.1437      7.5162      7.1256      6.9963      7.1259      7.5158      8.1421      9.0918      11.168      14.840    
  12.284      14.959      17.441      18.934      18.932      17.438      14.956      12.284      10.150      8.8628    
  8.1370      7.5698      7.1843      6.9963      6.9966      7.1848      7.5697      8.1353      8.8600      10.147    
  9.3125      10.277      11.409      12.333      12.689      12.332      11.409      10.280      9.3163      8.6615    
  8.1374      7.6891      7.3680      7.1844      7.1259      7.1848      7.3693      7.6906      8.1374      8.6590    
  8.4732      8.7873      9.1072      9.4316      9.6465      9.6470      9.4334      9.1101      8.7897      8.4734    
  8.1571      7.8861      7.6890      7.5698      7.5162      7.5158      7.5697      7.6906      7.8893      8.1596    
  8.2089      8.2854      8.3809      8.4773      8.5506      8.5787      8.5521      8.4789      8.3807      8.2829    
  8.2053      8.1570      8.1371      8.1369      8.1437      8.1466      8.1421      8.1353      8.1374      8.1596    
  8.4732      8.2854      8.1312      8.0323      7.9863      7.9731      7.9734      7.9864      8.0307      8.1282    
  8.2831      8.4734      8.6614      8.8628      9.0937      9.2568      9.2562      9.0918      8.8600      8.6590    
  9.3125      8.7873      8.3809      8.0323      7.7886      7.6552      7.6143      7.6548      7.7874      8.0308    
  8.3809      8.7899      9.3164      10.150      11.168      12.017      12.349      12.019      11.168      10.147    
  12.284      10.277      9.1072      8.4773      7.9863      7.6552      7.4959      7.4956      7.6547      7.9864    
  8.4789      9.1100      10.280      12.284      14.837      17.232      18.683      18.685      17.236      14.840    
  19.725      14.959      11.409      9.4316      8.5506      7.9731      7.6143      7.4956      7.6140      7.9735    
  8.5521      9.4330      11.408      14.957      19.722      24.637      28.344      29.723      28.345      24.640    
  32.917      24.730      17.441      12.333      9.6465      8.5787      7.9734      7.6548      7.6547      7.9735    
  8.5793      9.6466      12.332      17.438      24.728      32.918      40.069      44.247      44.245      40.066    
  51.505      40.114      28.484      18.934      12.689      9.6470      8.5521      7.9864      7.7874      7.9864    
  8.5521      9.6466      12.688      18.932      28.484      40.117      51.510      59.889      62.976      59.885    
  73.284      59.898      44.310      29.877      18.932      12.332      9.4334      8.4789      8.0307      8.0308    
  8.4789      9.4330      12.332      18.932      29.878      44.313      59.900      73.286      81.066      81.066    
  94.320      81.060      62.988      44.311      28.483      17.438      11.409      9.1101      8.3807      8.1282    
  8.3809      9.1100      11.408      17.438      28.484      44.313      62.987      81.056      94.317      99.208    
  109.76      99.202      81.061      59.902      40.117      24.727      14.956      10.280      8.7897      8.2829    
  8.2831      8.7899      10.280      14.957      24.728      40.117      59.900      81.056      99.197      109.75    
  85.020      80.810      69.388      53.827      37.798      24.341      15.140      10.301      8.5358      7.8854    
  7.6525      7.8854      8.5358      10.301      15.140      24.341      37.798      53.827      69.388      80.810    
  80.812      80.810      72.992      59.547      43.896      29.411      18.440      11.837      8.9514      8.0103    
  7.5696      7.5695      8.0102      8.9515      11.837      18.439      29.411      43.897      59.550      72.996    
  69.391      73.016      69.388      59.547      46.149      32.400      20.977      13.337      9.4790      8.1142    
  7.5192      7.3064      7.5189      8.1141      9.4792      13.337      20.976      32.399      46.150      59.550    
  53.826      59.607      59.607      53.827      43.896      32.400      21.929      14.265      9.9407      8.2017    
  7.4945      7.1175      7.1174      7.4943      8.2019      9.9410      14.265      21.928      32.398      43.894    
  37.795      44.002      46.296      44.005      37.798      29.411      20.977      14.265      10.125      8.2633    
  7.4853      7.0029      6.8384      7.0029      7.4853      8.2635      10.126      14.266      20.977      29.409    
  24.341      29.570      32.646      32.647      29.571      24.341      18.440      13.337      9.9407      8.2633    
  7.4833      6.9509      6.6814      6.6816      6.9510      7.4830      8.2632      9.9418      13.340      18.441    
  15.142      18.640      21.314      22.315      21.314      18.638      15.140      11.837      9.4790      8.2017    
  7.4853      6.9509      6.6317      6.5280      6.6319      6.9507      7.4844      8.2007      9.4792      11.839    
  10.301      12.055      13.731      14.757      14.756      13.729      12.053      10.301      8.9514      8.1142    
  7.4945      7.0029      6.6814      6.5280      6.5282      6.6817      7.0028      7.4934      8.1123      8.9498    
  8.5331      9.1631      9.8841      10.480      10.712      10.479      9.8841      9.1649      8.5358      8.0103    
  7.5192      7.1175      6.8384      6.6816      6.6319      6.6817      6.8391      7.1184      7.5192      8.0086    
  7.8853      8.2118      8.5049      8.7423      8.8871      8.8875      8.7434      8.5068      8.2134      7.8854    
  7.5696      7.3064      7.1174      7.0029      6.9510      6.9507      7.0028      7.1184      7.3086      7.5713    
  7.6549      7.7679      7.8979      8.0224      8.1136      8.1476      8.1145      8.0233      7.8977      7.7662    
  7.6525      7.5695      7.5189      7.4943      7.4853      7.4830      7.4843      7.4934      7.5192      7.5713    
  7.8853      7.7679      7.6820      7.6387      7.6296      7.6341      7.6343      7.6297      7.6376      7.6799    
  7.7663      7.8854      8.0102      8.1142      8.2019      8.2635      8.2632      8.2007      8.1123      8.0086    
  8.5331      8.2118      7.8979      7.6387      7.4644      7.3726      7.3452      7.3724      7.4637      7.6377    
  7.8979      8.2135      8.5358      8.9515      9.4792      9.9410      10.126      9.9418      9.4792      8.9498    
  10.301      9.1631      8.5049      8.0224      7.6296      7.3726      7.2513      7.2511      7.3723      7.6297    
  8.0235      8.5068      9.1647      10.301      11.837      13.337      14.265      14.266      13.340      11.839    
  15.142      12.055      9.8841      8.7423      8.1136      7.6341      7.3453      7.2511      7.3450      7.6343    
  8.1145      8.7432      9.8839      12.053      15.140      18.439      20.976      21.928      20.977      18.441    
  24.341      18.640      13.731      10.480      8.8871      8.1476      7.6343      7.3724      7.3723      7.6343    
  8.1479      8.8873      10.479      13.729      18.639      24.341      29.411      32.399      32.398      29.409    
  37.795      29.570      21.314      14.757      10.712      8.8875      8.1145      7.6297      7.4637      7.6297    
  8.1145      8.8873      10.711      14.756      21.314      29.572      37.798      43.897      46.150      43.894    
  53.826      44.002      32.646      22.315      14.756      10.479      8.7434      8.0233      7.6376      7.6377    
  8.0235      8.7432      10.479      14.756      22.316      32.648      44.004      53.827      59.550      59.550    
  69.391      59.607      46.296      32.647      21.314      13.729      9.8841      8.5068      7.8977      7.6799    
  7.8979      8.5068      9.8839      13.729      21.314      32.648      46.295      59.604      69.388      72.996    
  80.812      73.016      59.607      44.005      29.571      18.638      12.053      9.1649      8.2134      7.7662    
  7.7663      8.2135      9.1647      12.053      18.639      29.572      44.004      59.604      73.012      80.810    
  55.369      52.609      45.134      35.019      24.780      16.501      11.223      8.7411      7.8114      7.2796    
  7.0949      7.2797      7.8114      8.7411      11.223      16.501      24.780      35.019      45.134      52.609    
  52.610      52.609      47.475      38.685      28.581      19.487      12.963      9.3930      7.9847      7.3272    
  6.9749      6.9748      7.3271      7.9849      9.3933      12.963      19.487      28.581      38.687      47.477    
  45.135      47.519      45.134      38.685      29.996      21.279      14.353      10.075      8.1490      7.3667    
  6.8861      6.7215      6.8858      7.3667      8.1492      10.075      14.352      21.279      29.996      38.687    
  35.018      38.800      38.800      35.019      28.581      21.279      14.883      10.514      8.2965      7.3903    
  6.8270      6.5365      6.5364      6.8269      7.3903      8.2966      10.514      14.882      21.278      28.580    
  24.779      28.772      30.260      28.774      24.780      19.487      14.353      10.514      8.3579      7.3997    
  6.7939      6.4204      6.2972      6.4204      6.7939      7.3997      8.3581      10.514      14.353      19.486    
  16.501      19.744      21.686      21.687      19.745      16.501      12.963      10.075      8.2965      7.3997    
  6.7833      6.3657      6.1629      6.1631      6.3658      6.7832      7.3996      8.2971      10.076      12.964    
  11.224      13.259      14.863      15.472      14.863      13.258      11.223      9.3930      8.1490      7.3903    
  6.7939      6.3657      6.1203      6.0421      6.1205      6.3656      6.7935      7.3898      8.1492      9.3941    
  8.7409      9.6960      10.632      11.216      11.216      10.631      9.6952      8.7411      7.9847      7.3667    
  6.8270      6.4204      6.1629      6.0421      6.0422      6.1630      6.4203      6.8265      7.3658      7.9838    
  7.8099      8.2740      8.7032      9.0376      9.1663      9.0372      8.7032      8.2750      7.8114      7.3272    
  6.8861      6.5365      6.2972      6.1631      6.1205      6.1630      6.2975      6.5369      6.8861      7.3262    
  7.2796      7.6012      7.8971      8.1228      8.2444      8.2445      8.1232      7.8980      7.6021      7.2797    
  6.9749      6.7215      6.5364      6.4204      6.3658      6.3656      6.4203      6.5369      6.7227      6.9758    
  7.0962      7.2416      7.3971      7.5393      7.6402      7.6771      7.6407      7.5397      7.3969      7.2406    
  7.0949      6.9748      6.8858      6.8269      6.7939      6.7832      6.7935      6.8265      6.8861      6.9758    
  7.2796      7.2416      7.2261      7.2358      7.2597      7.2791      7.2792      7.2598      7.2353      7.2250    
  7.2407      7.2797      7.3271      7.3667      7.3903      7.3997      7.3996      7.3898      7.3658      7.3262    
  7.8098      7.6012      7.3972      7.2358      7.1332      7.0826      7.0684      7.0826      7.1329      7.2353    
  7.3972      7.6022      7.8114      7.9849      8.1492      8.2966      8.3581      8.2971      8.1492      7.9838    
  8.7409      8.2740      7.8971      7.5393      7.2597      7.0826      7.0009      7.0008      7.0825      7.2598    
  7.5398      7.8980      8.2749      8.7411      9.3933      10.075      10.514      10.514      10.076      9.3941    
  11.224      9.6960      8.7032      8.1228      7.6402      7.2791      7.0684      7.0008      7.0682      7.2791    
  7.6407      8.1232      8.7030      9.6949      11.223      12.963      14.352      14.882      14.353      12.964    
  16.501      13.259      10.632      9.0376      8.2444      7.6771      7.2792      7.0826      7.0825      7.2791    
  7.6772      8.2445      9.0371      10.631      13.258      16.501      19.487      21.279      21.278      19.486    
  24.779      19.744      14.863      11.216      9.1663      8.2445      7.6407      7.2598      7.1329      7.2598    
  7.6407      8.2445      9.1660      11.216      14.863      19.745      24.780      28.581      29.996      28.580    
  35.018      28.772      21.686      15.472      11.216      9.0372      8.1232      7.5397      7.2353      7.2353    
  7.5398      8.1232      9.0371      11.216      15.473      21.687      28.773      35.019      38.687      38.687    
  45.135      38.800      30.260      21.687      14.863      10.631      8.7032      7.8980      7.3969      7.2250    
  7.3971      7.8980      8.7030      10.631      14.863      21.687      30.260      38.799      45.134      47.477    
  52.610      47.519      38.800      28.774      19.745      13.258      9.6952      8.2750      7.6021      7.2406    
  7.2407      7.6022      8.2749      9.6949      13.258      19.745      28.773      38.799      47.517      52.609    
  31.991      30.426      26.223      20.649      15.229      11.149      8.8269      7.7978      7.1662      6.7693    
  6.6371      6.7693      7.1662      7.7978      8.8269      11.149      15.229      20.649      26.223      30.426    
  30.426      30.426      27.518      22.610      17.137      12.480      9.4414      7.9648      7.2381      6.7328    
  6.4781      6.4781      6.7327      7.2382      7.9651      9.4415      12.480      17.137      22.611      27.519    
  26.223      27.573      26.223      22.610      17.859      13.308      9.9676      8.1302      7.2800      6.7018    
  6.3486      6.2325      6.3485      6.7017      7.2801      8.1303      9.9675      13.307      17.859      22.611    
  20.649      22.755      22.755      20.649      17.137      13.308      10.175      8.2436      7.2956      6.6758    
  6.2530      6.0468      6.0467      6.2529      6.6757      7.2955      8.2434      10.175      13.307      17.136    
  15.229      17.376      18.189      17.377      15.229      12.480      9.9676      8.2436      7.2988      6.6601    
  6.1941      5.9247      5.8384      5.9247      6.1942      6.6600      7.2987      8.2436      9.9676      12.479    
  11.149      12.794      13.808      13.808      12.794      11.149      9.4414      8.1302      7.2956      6.6601    
  6.1742      5.8646      5.7192      5.7193      5.8648      6.1742      6.6600      7.2957      8.1307      9.4418    
  8.8274      9.7971      10.585      10.890      10.585      9.7969      8.8269      7.9648      7.2800      6.6758    
  6.1942      5.8646      5.6807      5.6228      5.6809      5.8647      6.1941      6.6757      7.2801      7.9653    
  7.7977      8.3301      8.8015      9.0906      9.0904      8.8012      8.3299      7.7978      7.2381      6.7018    
  6.2530      5.9247      5.7192      5.6228      5.6228      5.7192      5.9246      6.2528      6.7015      7.2378    
  7.1656      7.5948      7.9578      8.1994      8.2842      8.1992      7.9578      7.5953      7.1662      6.7328    
  6.3486      6.0468      5.8384      5.7193      5.6809      5.7192      5.8384      6.0469      6.3486      6.7324    
  6.7692      7.0781      7.3664      7.5905      7.7131      7.7130      7.5905      7.3666      7.0785      6.7693    
  6.4781      6.2325      6.0467      5.9247      5.8648      5.8647      5.9246      6.0469      6.2329      6.4784    
  6.6376      6.8169      6.9998      7.1614      7.2739      7.3144      7.2740      7.1615      6.9996      6.8166    
  6.6371      6.4780      6.3485      6.2529      6.1942      6.1742      6.1940      6.2528      6.3486      6.4784    
  6.7692      6.8169      6.8786      6.9489      7.0130      7.0518      7.0519      7.0131      6.9488      6.8782    
  6.8166      6.7693      6.7327      6.7017      6.6757      6.6600      6.6600      6.6757      6.7015      6.7324    
  7.1656      7.0781      6.9998      6.9489      6.9285      6.9270      6.9289      6.9272      6.9286      6.9488    
  6.9998      7.0785      7.1662      7.2382      7.2801      7.2955      7.2987      7.2957      7.2801      7.2378    
  7.7977      7.5948      7.3664      7.1614      7.0130      6.9270      6.8908      6.8908      6.9271      7.0130    
  7.1616      7.3667      7.5952      7.7978      7.9651      8.1303      8.2434      8.2436      8.1307      7.9653    
  8.8274      8.3301      7.9578      7.5905      7.2739      7.0518      6.9289      6.8908      6.9288      7.0517    
  7.2740      7.5906      7.9577      8.3296      8.8269      9.4415      9.9675      10.175      9.9676      9.4418    
  11.149      9.7971      8.8015      8.1994      7.7131      7.3144      7.0519      6.9272      6.9271      7.0517    
  7.3144      7.7131      8.1992      8.8011      9.7967      11.149      12.480      13.307      13.307      12.479    
  15.229      12.794      10.585      9.0906      8.2842      7.7130      7.2740      7.0131      6.9286      7.0131    
  7.2740      7.7131      8.2842      9.0905      10.585      12.794      15.229      17.137      17.859      17.136    
  20.649      17.376      13.808      10.890      9.0904      8.1992      7.5905      7.1615      6.9488      6.9488    
  7.1616      7.5906      8.1992      9.0905      10.890      13.808      17.377      20.649      22.611      22.611    
  26.223      22.755      18.189      13.808      10.585      8.8012      7.9578      7.3666      6.9996      6.8782    
  6.9998      7.3667      7.9577      8.8011      10.585      13.808      18.189      22.754      26.223      27.519    
  30.426      27.573      22.755      17.377      12.794      9.7969      8.3299      7.5953      7.0785      6.8166    
  6.8166      7.0785      7.5952      8.3296      9.7967      12.794      17.377      22.754      27.573      30.426    
  17.121      16.412      14.542      12.165      10.018      8.5620      7.7433      7.1372      6.6848      6.4195    
  6.3340      6.4195      6.6848      7.1372      7.7433      8.5620      10.018      12.165      14.542      16.412    
  16.412      16.412      15.096      12.942      10.673      8.9089      7.8511      7.1824      6.6522      6.3012    
  6.1327      6.1327      6.3011      6.6522      7.1826      7.8512      8.9090      10.673      12.942      15.096    
  14.542      15.152      14.542      12.942      10.930      9.1406      7.9371      7.2036      6.6224      6.2041    