unknown system                          
   1.00000000000000     
     2.260100    0.000000    0.000000
    -1.130050    1.957304    0.000000
     0.000000    0.000000    3.977000
   Fe
     2
Direct
  0.000000  0.000000  0.000000
  0.333333  0.666667  0.500000
 
   20   20   32
 0.14754956264E+03 0.14025685222E+03 0.12053774851E+03 0.93756326651E+02 0.66034899383E+02
 0.42185033058E+02 0.24875936558E+02 0.14659024855E+02 0.10248996720E+02 0.90623567072E+01
 0.87683302639E+01 0.90623910259E+01 0.10249027777E+02 0.14659027206E+02 0.24875928927E+02
 0.42185049986E+02 0.66034942272E+02 0.93756361105E+02 0.12053775032E+03 0.14025683778E+03
 0.14026009615E+03 0.14025684813E+03 0.12678361369E+03 0.10368309524E+03 0.76762297576E+02
 0.51468247692E+02 0.31471268925E+02 0.18325016330E+02 0.11618434433E+02 0.93386721731E+01
 0.87586863371E+01 0.87585510428E+01 0.93385419723E+01 0.11618485367E+02 0.18324633313E+02
 0.31469997246E+02 0.51467411212E+02 0.76764527982E+02 0.10368932466E+03 0.12679086706E+03
 0.12054255881E+03 0.12675906260E+03 0.12053774984E+03 0.10368309969E+03 0.80710833904E+02
 0.56865949136E+02 0.36382511177E+02 0.21672596261E+02 0.13209087461E+02 0.97226644396E+01
 0.87649172508E+01 0.84825940117E+01 0.87646371877E+01 0.97227360043E+01 0.13209336346E+02
 0.21671795699E+02 0.36380351012E+02 0.56864546134E+02 0.80712953748E+02 0.10368855973E+03
 0.93754127517E+02 0.10361689734E+03 0.10361764370E+03 0.93756335260E+02 0.76762295404E+02
 0.56865944741E+02 0.38199908516E+02 0.23671679057E+02 0.14494298904E+02 0.10158101041E+02
 0.87802466282E+01 0.82731712068E+01 0.82730178388E+01 0.87801785949E+01 0.10158660932E+02
 0.14495150586E+02 0.23671632474E+02 0.38198094492E+02 0.56862756429E+02 0.76759036029E+02
 0.66027968565E+02 0.76668900596E+02 0.80582647745E+02 0.76674349490E+02 0.66034899422E+02
 0.51468239066E+02 0.36382514469E+02 0.23671683126E+02 0.14987617126E+02 0.10453554921E+02
 0.88008506133E+01 0.81428702892E+01 0.79065518815E+01 0.81427736560E+01 0.88008579899E+01
 0.10454278549E+02 0.14989527342E+02 0.23673866062E+02 0.36382516229E+02 0.51464152847E+02
 0.42184195986E+02 0.51390342130E+02 0.56728706536E+02 0.56730490534E+02 0.51393585291E+02
 0.42185028773E+02 0.31471270331E+02 0.21672604377E+02 0.14494294372E+02 0.10453551317E+02
 0.88127754582E+01 0.80834719902E+01 0.76914939819E+01 0.76915417888E+01 0.80831922479E+01
 0.88119410492E+01 0.10453424549E+02 0.14496530175E+02 0.21676672992E+02 0.31474109611E+02
 0.24880737417E+02 0.31440696765E+02 0.36300909638E+02 0.38093980303E+02 0.36298784526E+02
 0.31436621456E+02 0.24875933315E+02 0.18325020670E+02 0.13209084515E+02 0.10158093768E+02
 0.88008563452E+01 0.80834750453E+01 0.76220735129E+01 0.74664697957E+01 0.76223370947E+01
 0.80827693171E+01 0.87986927730E+01 0.10155996274E+02 0.13209336346E+02 0.18328322747E+02
 0.14658977422E+02 0.18335530385E+02 0.21668688650E+02 0.23648231416E+02 0.23646027616E+02
 0.21663866803E+02 0.18331866844E+02 0.14659022041E+02 0.11618437039E+02 0.97226603328E+01
 0.87802509830E+01 0.81428764294E+01 0.76914871576E+01 0.74664673076E+01 0.74669506491E+01
 0.76923460045E+01 0.81427238717E+01 0.87779947906E+01 0.97187624956E+01 0.11615177218E+02
 0.10243947908E+02 0.11645815300E+02 0.13256488904E+02 0.14547321765E+02 0.15039848141E+02
 0.14545951560E+02 0.13256487821E+02 0.11649101630E+02 0.10249001400E+02 0.93386743887E+01
 0.87649150818E+01 0.82731746336E+01 0.79065463120E+01 0.76915369418E+01 0.76223448924E+01
 0.76923479818E+01 0.79084457190E+01 0.82752514274E+01 0.87649085672E+01 0.93352836075E+01
 0.90622361179E+01 0.93721604514E+01 0.97882413202E+01 0.10248415707E+02 0.10556994411E+02
 0.10557827559E+02 0.10251038865E+02 0.97921869460E+01 0.93754057688E+01 0.90623622044E+01
 0.87586807110E+01 0.84825921228E+01 0.82730197255E+01 0.81427713056E+01 0.80831988842E+01
 0.80827728983E+01 0.81427153812E+01 0.82752498873E+01 0.84867722127E+01 0.87619643157E+01
 0.87731387538E+01 0.87992403586E+01 0.88379939645E+01 0.88821643523E+01 0.89243741167E+01
 0.89452950278E+01 0.89264965179E+01 0.88843223808E+01 0.88377501374E+01 0.87958697544E+01
 0.87683280228E+01 0.87585465014E+01 0.87646437023E+01 0.87801805002E+01 0.88008563452E+01
 0.88119421567E+01 0.87986853963E+01 0.87779923412E+01 0.87649172508E+01 0.87619654004E+01
 0.90622278227E+01 0.87992398276E+01 0.85606375958E+01 0.83832165000E+01 0.82782208085E+01
 0.82339320830E+01 0.82343461946E+01 0.82782636757E+01 0.83810095852E+01 0.85565191980E+01
 0.87960193374E+01 0.90623882278E+01 0.93385455041E+01 0.97227394331E+01 0.10158653722E+02
 0.10454276432E+02 0.10453426036E+02 0.10155996337E+02 0.97187700312E+01 0.93352849237E+01
 0.10243940874E+02 0.93721604032E+01 0.88380014093E+01 0.83832164177E+01 0.80476827600E+01
 0.78541240660E+01 0.77924373245E+01 0.78533407204E+01 0.80458072664E+01 0.83811384697E+01
 0.88379974932E+01 0.93755606768E+01 0.10249025424E+02 0.11618486824E+02 0.13209331871E+02
 0.14495148372E+02 0.14989534987E+02 0.14496532492E+02 0.13209334817E+02 0.11615176068E+02
 0.14658979208E+02 0.11645817489E+02 0.97882473709E+01 0.88821631049E+01 0.82782145234E+01
 0.78541246904E+01 0.76441321850E+01 0.76436701760E+01 0.78532950736E+01 0.82783469135E+01
 0.88843473291E+01 0.97920776848E+01 0.11649055983E+02 0.14659026179E+02 0.18324635248E+02
 0.21671796024E+02 0.23671637480E+02 0.23673866999E+02 0.21676665200E+02 0.18328320341E+02
 0.24880745048E+02 0.18335532737E+02 0.13256486791E+02 0.10248412655E+02 0.89243693324E+01
 0.82339343704E+01 0.77924422351E+01 0.76436692122E+01 0.77921899686E+01 0.82346346361E+01
 0.89264965179E+01 0.10250466631E+02 0.13256216441E+02 0.18332234386E+02 0.24875933315E+02
 0.31469999005E+02 0.36380349252E+02 0.38198092253E+02 0.36382511177E+02 0.31474109964E+02
 0.42184200607E+02 0.31440695197E+02 0.21668681533E+02 0.14547319642E+02 0.10556996793E+02
 0.89452985525E+01 0.82343494955E+01 0.78533378860E+01 0.78532916149E+01 0.82346356496E+01
 0.89461481774E+01 0.10557150016E+02 0.14545119109E+02 0.21664649470E+02 0.31437884976E+02
 0.42185050322E+02 0.51467406615E+02 0.56864543603E+02 0.56862758294E+02 0.51464156877E+02
 0.66027966355E+02 0.51390336653E+02 0.36300905859E+02 0.23648233990E+02 0.15039854366E+02
 0.10557829244E+02 0.89264938701E+01 0.82782601701E+01 0.80458055783E+01 0.82783496931E+01
 0.89264986543E+01 0.10557149319E+02 0.15037994983E+02 0.23646077401E+02 0.36300909063E+02
 0.51394439291E+02 0.66034940101E+02 0.76764528993E+02 0.80712958441E+02 0.76759039211E+02
 0.93754122841E+02 0.76668896980E+02 0.56728709211E+02 0.38093986666E+02 0.23646030180E+02
 0.14545948283E+02 0.10251033791E+02 0.88843212681E+01 0.83810126077E+01 0.83811415746E+01
 0.88843474638E+01 0.10250464609E+02 0.14545117955E+02 0.23646077390E+02 0.38095753044E+02
 0.56731840344E+02 0.76672145680E+02 0.93756365038E+02 0.10368932679E+03 0.10368855741E+03
 0.12054255700E+03 0.10361690069E+03 0.80582652189E+02 0.56730494252E+02 0.36298781321E+02
 0.21663860230E+02 0.13256486791E+02 0.97921905755E+01 0.88377540534E+01 0.85565198598E+01
 0.88379939645E+01 0.97920752636E+01 0.13256217524E+02 0.21664650014E+02 0.36300909638E+02
 0.56731841387E+02 0.80580482528E+02 0.10361142126E+03 0.12053774984E+03 0.12679086090E+03
 0.14026009693E+03 0.12675907040E+03 0.10361764484E+03 0.76674345499E+02 0.51393581361E+02
 0.31436618038E+02 0.18331870703E+02 0.11649107844E+02 0.93754051118E+01 0.87958662345E+01
 0.87960163486E+01 0.93755600679E+01 0.11649060009E+02 0.18332235892E+02 0.31437883125E+02
 0.51394440839E+02 0.76672145305E+02 0.10361141904E+03 0.12675179460E+03 0.14025683447E+03
 0.13875899958E+03 0.13190703263E+03 0.11336699476E+03 0.88162105886E+02 0.62060889219E+02
 0.39636524088E+02 0.23442611184E+02 0.13986112398E+02 0.99823259590E+01 0.89040463891E+01
 0.86161559549E+01 0.89040803973E+01 0.99823573960E+01 0.13986115856E+02 0.23442603655E+02
 0.39636538595E+02 0.62060928157E+02 0.88162137642E+02 0.11336699653E+03 0.13190701933E+03
 0.13191004937E+03 0.13190702857E+03 0.11923877765E+03 0.97500390019E+02 0.72149177488E+02
 0.48342159340E+02 0.29581932766E+02 0.17345916388E+02 0.11198223858E+02 0.91508627266E+01
 0.85955790766E+01 0.85954458130E+01 0.91507346490E+01 0.11198290195E+02 0.17345605984E+02
 0.29580794597E+02 0.48341398250E+02 0.72151242776E+02 0.97506169853E+02 0.11924551851E+03
 0.11337147000E+03 0.11922075938E+03 0.11336699606E+03 0.97500394410E+02 0.75862926492E+02
 0.53409307631E+02 0.34166745633E+02 0.20433312950E+02 0.12628564606E+02 0.94785379180E+01
 0.85952206965E+01 0.83205535153E+01 0.85949386566E+01 0.94785921114E+01 0.12628815106E+02
 0.20432604420E+02 0.34164756737E+02 0.53407994482E+02 0.75864879000E+02 0.97505463648E+02
 0.88160069218E+02 0.97451675539E+02 0.97452364937E+02 0.88162114381E+02 0.72149175347E+02
 0.53409303299E+02 0.35865405303E+02 0.22282959925E+02 0.13793154712E+02 0.98541204246E+01
 0.86071141548E+01 0.81148782099E+01 0.81147271086E+01 0.86070309643E+01 0.98546199028E+01
 0.13793928590E+02 0.22282899033E+02 0.35863700732E+02 0.53406326663E+02 0.72146144314E+02
 0.62054460811E+02 0.72083847339E+02 0.75773265153E+02 0.72088906505E+02 0.62060889268E+02
 0.48342150839E+02 0.34166748893E+02 0.22282963942E+02 0.14241727285E+02 0.10111612681E+02
 0.86224366309E+01 0.79881696096E+01 0.77608440832E+01 0.79880905394E+01 0.86224438983E+01
 0.10112260588E+02 0.14243464630E+02 0.22284967458E+02 0.34166750613E+02 0.48338368212E+02
 0.39635762421E+02 0.48298025428E+02 0.53326698601E+02 0.53328361011E+02 0.48301041422E+02
 0.39636519872E+02 0.29581934162E+02 0.20433320963E+02 0.13793150236E+02 0.10111609121E+02
 0.86311606837E+01 0.79307559376E+01 0.75546367542E+01 0.75546999869E+01 0.79305322767E+01
 0.86304038397E+01 0.10111484415E+02 0.13795220841E+02 0.20437116837E+02 0.29584600808E+02
 0.23447077125E+02 0.29585277487E+02 0.34146218266E+02 0.35830984282E+02 0.34144260591E+02
 0.29581504702E+02 0.23442607981E+02 0.17345920670E+02 0.12628561693E+02 0.98541132406E+01
 0.86224422746E+01 0.79307589492E+01 0.74882989774E+01 0.73398085093E+01 0.74885647760E+01
 0.79301288534E+01 0.86204500217E+01 0.98521787283E+01 0.12628815106E+02 0.17349008772E+02
 0.13986050673E+02 0.17387780437E+02 0.20489088668E+02 0.22336378512E+02 0.22334337244E+02
 0.20484626314E+02 0.17384399795E+02 0.13986109607E+02 0.11198226426E+02 0.94785338608E+01
 0.86071184391E+01 0.79881756631E+01 0.75546300334E+01 0.73398060593E+01 0.73402464424E+01
 0.75554109775E+01 0.79880253565E+01 0.86050277229E+01 0.94749210508E+01 0.11195194975E+02
 0.99776104409E+01 0.11254388591E+02 0.12731515492E+02 0.13921449526E+02 0.14376604944E+02
 0.13920166490E+02 0.12731514422E+02 0.11257462090E+02 0.99823305704E+01 0.91508649169E+01
 0.85952185553E+01 0.81148815904E+01 0.77608386006E+01 0.75546952162E+01 0.74885724622E+01
 0.75554129277E+01 0.77625644750E+01 0.81167955329E+01 0.85952121414E+01 0.91477046113E+01
 0.89039277786E+01 0.92113358706E+01 0.95963435332E+01 0.10016868424E+02 0.10298862417E+02
 0.10299620207E+02 0.10019273335E+02 0.95999906714E+01 0.92143539875E+01 0.89040518250E+01
 0.85955735453E+01 0.83205516603E+01 0.81147289717E+01 0.79880882273E+01 0.79305388177E+01
 0.79301323828E+01 0.79880169908E+01 0.81167940153E+01 0.83244423775E+01 0.85986284695E+01
 0.86206294251E+01 0.86620981573E+01 0.87188626303E+01 0.87800596824E+01 0.88306902614E+01
 0.88531940535E+01 0.88326452532E+01 0.87820408493E+01 0.87186171214E+01 0.86589568209E+01
 0.86161537775E+01 0.85954413439E+01 0.85949450705E+01 0.86070328389E+01 0.86224422746E+01
 0.86304049275E+01 0.86204427542E+01 0.86050253132E+01 0.85952206965E+01 0.85986295317E+01
 0.89039195899E+01 0.86620976412E+01 0.84485124201E+01 0.82953384416E+01 0.82091850188E+01
 0.81750569019E+01 0.81754513619E+01 0.82092422317E+01 0.82932940948E+01 0.84446802636E+01
 0.86591040375E+01 0.89040776445E+01 0.91507381177E+01 0.94785954771E+01 0.98546127900E+01
 0.10112258496E+02 0.10111485882E+02 0.98521787996E+01 0.94749284738E+01 0.91477058897E+01
 0.99776034959E+01 0.92113358428E+01 0.87188699954E+01 0.82953383587E+01 0.79877818982E+01
 0.78130373634E+01 0.77579319190E+01 0.78123436522E+01 0.79860754546E+01 0.82934208940E+01
 0.87188661143E+01 0.92145066062E+01 0.99823550623E+01 0.11198291609E+02 0.12628810686E+02
 0.13793926410E+02 0.14243472168E+02 0.13795223136E+02 0.12628813598E+02 0.11195193820E+02
 0.13986052433E+02 0.11254390769E+02 0.95963495242E+01 0.87800584464E+01 0.82091788008E+01
 0.78130379806E+01 0.76185475141E+01 0.76181268670E+01 0.78122836867E+01 0.82093090655E+01
 0.87820803974E+01 0.95998980181E+01 0.11257402124E+02 0.13986114825E+02 0.17345607885E+02
 0.20432604754E+02 0.22282903976E+02 0.22284968384E+02 0.20437109158E+02 0.17349006391E+02
 0.23447084655E+02 0.17387782764E+02 0.12731513413E+02 0.10016865406E+02 0.88306855247E+01
 0.81750591624E+01 0.77579367750E+01 0.76181259093E+01 0.77576829261E+01 0.81756862021E+01
 0.88326452532E+01 0.10018759076E+02 0.12731240937E+02 0.17384696252E+02 0.23442607981E+02
 0.29580796349E+02 0.34164755016E+02 0.35863698518E+02 0.34166745633E+02 0.29584601164E+02
 0.39635766983E+02 0.29585275933E+02 0.20489081638E+02 0.13921447426E+02 0.10298864765E+02
 0.88531975332E+01 0.81754546278E+01 0.78123408413E+01 0.78122802586E+01 0.81756872075E+01
 0.88539715757E+01 0.10299015721E+02 0.13919409385E+02 0.20485318236E+02 0.29582634557E+02
 0.39636538941E+02 0.48341393734E+02 0.53407991980E+02 0.53406328492E+02 0.48338372198E+02
 0.62054458633E+02 0.48298020014E+02 0.34146214530E+02 0.22336381051E+02 0.14376611091E+02
 0.10299621869E+02 0.88326426405E+01 0.82092387662E+01 0.79860737753E+01 0.82093118180E+01
 0.88326473772E+01 0.10299015036E+02 0.14374921313E+02 0.22334402427E+02 0.34146217706E+02
 0.48301817595E+02 0.62060926029E+02 0.72151243771E+02 0.75864883608E+02 0.72146147450E+02
 0.88160064606E+02 0.72083843776E+02 0.53326701246E+02 0.35830990561E+02 0.22334339771E+02
 0.13920163251E+02 0.10019268325E+02 0.87820397610E+01 0.82932970787E+01 0.82934239608E+01
 0.87820805451E+01 0.10018757086E+02 0.13919408246E+02 0.22334402415E+02 0.35832652811E+02
 0.53329626117E+02 0.72086865225E+02 0.88162141526E+02 0.97506171934E+02 0.97505461336E+02
 0.11337146823E+03 0.97451678872E+02 0.75773269558E+02 0.53328364682E+02 0.34144257414E+02
 0.20484619818E+02 0.12731513413E+02 0.95999942740E+01 0.87186210025E+01 0.84446809057E+01
 0.87188626303E+01 0.95998956297E+01 0.12731242007E+02 0.20485318770E+02 0.34146218266E+02
 0.53329627143E+02 0.75771271277E+02 0.97446591798E+02 0.11336699606E+03 0.11924551240E+03
 0.13191005014E+03 0.11922076711E+03 0.97452366076E+02 0.72088902568E+02 0.48301037525E+02
 0.29581501317E+02 0.17384403614E+02 0.11257468245E+02 0.92143533539E+01 0.86589533309E+01
 0.86591010635E+01 0.92145060005E+01 0.11257406102E+02 0.17384697743E+02 0.29582632727E+02
 0.48301819112E+02 0.72086864850E+02 0.97446589604E+02 0.11921400562E+03 0.13190701605E+03
 0.11545148287E+03 0.10975498747E+03 0.94316586713E+02 0.73285963403E+02 0.51510304097E+02
 0.32917581318E+02 0.19721751837E+02 0.12283874088E+02 0.93163232028E+01 0.84733608683E+01
 0.82052723688E+01 0.84733933996E+01 0.93163547276E+01 0.12283879848E+02 0.19721744596E+02
 0.32917590012E+02 0.51510333308E+02 0.73285988432E+02 0.94316588422E+02 0.10975497704E+03
 0.10975739969E+03 0.10975498354E+03 0.99202275193E+02 0.81061748891E+02 0.59887859892E+02
 0.40069300325E+02 0.24638245835E+02 0.14837568572E+02 0.10149602011E+02 0.86614988432E+01
 0.81571231360E+01 0.81569970063E+01 0.86613779582E+01 0.10149704649E+02 0.14837440339E+02
 0.24637452304E+02 0.40068735937E+02 0.59889488126E+02 0.81066335778E+02 0.99207653507E+02
 0.94320170129E+02 0.99202035410E+02 0.94316587936E+02 0.81061753116E+02 0.62974391615E+02
 0.44247806789E+02 0.28345122687E+02 0.17232783220E+02 0.11167313797E+02 0.88628192048E+01
 0.81373826200E+01 0.78861470412E+01 0.81371005878E+01 0.88628303376E+01 0.11167564253E+02
 0.17232310997E+02 0.28343584475E+02 0.44246734337E+02 0.62975903106E+02 0.81065784467E+02
 0.73284357184E+02 0.81060282700E+02 0.81060821574E+02 0.73285971576E+02 0.59887857830E+02
 0.44247802633E+02 0.29724157830E+02 0.18683015870E+02 0.12016894142E+02 0.90933547194E+01
 0.81369735915E+01 0.76891031408E+01 0.76889602344E+01 0.81368551874E+01 0.90936989085E+01
 0.12017465525E+02 0.18682920947E+02 0.29722748285E+02 0.44245391621E+02 0.59885434226E+02
 0.51505208608E+02 0.59897686082E+02 0.62988053168E+02 0.59901710054E+02 0.51510304163E+02
 0.40069292171E+02 0.28345125855E+02 0.18683019739E+02 0.12347927022E+02 0.92563269477E+01
 0.81436540650E+01 0.75698264443E+01 0.73680098123E+01 0.75697915682E+01 0.81436610216E+01
 0.92567794405E+01 0.12349213774E+02 0.18684552195E+02 0.28345127468E+02 0.40066313285E+02
 0.32917016398E+02 0.40114491754E+02 0.44310140101E+02 0.44311478190E+02 0.40116903272E+02
 0.32917577294E+02 0.24638247202E+02 0.17232790938E+02 0.12016889826E+02 0.92563235156E+01
 0.81472041918E+01 0.75162465056E+01 0.71842569698E+01 0.71843565704E+01 0.75161629076E+01
 0.81466487748E+01 0.92562058264E+01 0.12018523159E+02 0.17235858575E+02 0.24640448571E+02
 0.19725326303E+02 0.24729768978E+02 0.28484153811E+02 0.29876839174E+02 0.28482637426E+02
 0.24726797268E+02 0.19721748742E+02 0.14837572688E+02 0.11167310985E+02 0.90933477910E+01
 0.81436594624E+01 0.75162493932E+01 0.71256316496E+01 0.69963186479E+01 0.71258981218E+01
 0.75158138684E+01 0.81421180284E+01 0.90918430858E+01 0.11167564253E+02 0.14840087566E+02
 0.12283778375E+02 0.14959113150E+02 0.17441195709E+02 0.18933591326E+02 0.18931980694E+02
 0.17437684961E+02 0.14956479192E+02 0.12283871370E+02 0.10149604473E+02 0.88628152930E+01
 0.81369776792E+01 0.75698322503E+01 0.71842505408E+01 0.69963163038E+01 0.69966446960E+01
 0.71848287114E+01 0.75696900950E+01 0.81353254129E+01 0.88599578470E+01 0.10147180523E+02
 0.93124991807E+01 0.10277107659E+02 0.11408609209E+02 0.12333160481E+02 0.12689379808E+02
 0.12332111457E+02 0.11408608180E+02 0.10279610809E+02 0.93163276215E+01 0.86615009625E+01
 0.81373805575E+01 0.76891063866E+01 0.73680045722E+01 0.71843520140E+01 0.71259054900E+01
 0.71848305840E+01 0.73692789652E+01 0.76905914820E+01 0.81373744281E+01 0.86589553059E+01
 0.84732490405E+01 0.87873363318E+01 0.91072234181E+01 0.94315615748E+01 0.96464617520E+01
 0.96470229313E+01 0.94333936822E+01 0.91100813987E+01 0.87897498854E+01 0.84733661260E+01
 0.81571178680E+01 0.78861452758E+01 0.76889620275E+01 0.75697893644E+01 0.75161691773E+01
 0.75158172505E+01 0.75696820852E+01 0.76905900294E+01 0.78892653641E+01 0.81595640177E+01
 0.82088540754E+01 0.82854457271E+01 0.83809019615E+01 0.84773404949E+01 0.85505807077E+01
 0.85786708963E+01 0.85520944864E+01 0.84788569274E+01 0.83806563085E+01 0.82829159828E+01
 0.82052703624E+01 0.81569927368E+01 0.81371067171E+01 0.81368569781E+01 0.81436594624E+01
 0.81466498056E+01 0.81421110719E+01 0.81353231159E+01 0.81373826200E+01 0.81595650162E+01
 0.84732411574E+01 0.82854452535E+01 0.81312434352E+01 0.80323173307E+01 0.79863045539E+01
 0.79730711380E+01 0.79734111273E+01 0.79863959112E+01 0.80307037232E+01 0.81281734159E+01
 0.82830549215E+01 0.84733907743E+01 0.86613812516E+01 0.88628335306E+01 0.90936920768E+01
 0.92567774188E+01 0.92562072368E+01 0.90918431826E+01 0.88599649519E+01 0.86589564800E+01
 0.93124924898E+01 0.87873363586E+01 0.83809090944E+01 0.80323172435E+01 0.77886364850E+01
 0.76552253767E+01 0.76142652314E+01 0.76547622264E+01 0.77873712824E+01 0.80308234340E+01
 0.83809053149E+01 0.87898942446E+01 0.93163524553E+01 0.10149705947E+02 0.11167559992E+02
 0.12017463440E+02 0.12349221009E+02 0.12018525389E+02 0.11167562804E+02 0.10147179359E+02
 0.12283780058E+02 0.10277109804E+02 0.91072292338E+01 0.84773392865E+01 0.79862985281E+01
 0.76552259768E+01 0.74958864412E+01 0.74955737941E+01 0.76546681958E+01 0.79864215915E+01
 0.84789317302E+01 0.91100310702E+01 0.10279516778E+02 0.12283878813E+02 0.14837442144E+02
 0.17232311354E+02 0.18682925709E+02 0.18684553087E+02 0.17235851214E+02 0.14840085255E+02
 0.19725333543E+02 0.14959115407E+02 0.11408607223E+02 0.94315586507E+01 0.85505761064E+01
 0.79730733287E+01 0.76142699355E+01 0.74955728554E+01 0.76140162250E+01 0.79735109716E+01
 0.85520944864E+01 0.94330297679E+01 0.11408334340E+02 0.14956597274E+02 0.19721748742E+02
 0.24637454033E+02 0.28343582862E+02 0.29722746138E+02 0.28345122687E+02 0.24640448932E+02
 0.32917020793E+02 0.24729767465E+02 0.17441188926E+02 0.12333158447E+02 0.96464640021E+01
 0.85786742535E+01 0.79734142988E+01 0.76547594821E+01 0.76546648514E+01 0.79735119524E+01
 0.85792506495E+01 0.96466067651E+01 0.12331550932E+02 0.17438144014E+02 0.24727582368E+02
 0.32917590382E+02 0.40068731646E+02 0.44246731911E+02 0.44245393351E+02 0.40066317147E+02
 0.51505206524E+02 0.40114486523E+02 0.28484150198E+02 0.18933593767E+02 0.12689385733E+02
 0.96470245275E+01 0.85520919730E+01 0.79863925587E+01 0.77873696248E+01 0.79864242647E+01
 0.85520965743E+01 0.96466061111E+01 0.12688137782E+02 0.18932082168E+02 0.28484153292E+02
 0.40117476887E+02 0.51510331290E+02 0.59889489078E+02 0.62975907482E+02 0.59885437240E+02
 0.73284352755E+02 0.59897682664E+02 0.44310142660E+02 0.29876845220E+02 0.18931983118E+02
 0.12332108324E+02 0.94333888543E+01 0.84788559043E+01 0.80307065950E+01 0.80308263931E+01
 0.84789319154E+01 0.94330278641E+01 0.12331549833E+02 0.18932082151E+02 0.29878225247E+02
 0.44312515224E+02 0.59900099405E+02 0.73285992175E+02 0.81066337728E+02 0.81065782192E+02
 0.94320168419E+02 0.81060285958E+02 0.62988057450E+02 0.44311481728E+02 0.28482634332E+02
 0.17437678685E+02 0.11408607223E+02 0.91100849193E+01 0.83806600879E+01 0.81281740082E+01
 0.83809019615E+01 0.91100287752E+01 0.11408335368E+02 0.17438144520E+02 0.28484153811E+02
 0.44312516203E+02 0.62986510175E+02 0.81056240611E+02 0.94316587936E+02 0.99207647561E+02
 0.10975740043E+03 0.99202042911E+02 0.81060822717E+02 0.59901706270E+02 0.40116899481E+02
 0.24726793982E+02 0.14956482894E+02 0.10279616792E+02 0.87897493157E+01 0.82829125856E+01
 0.82830519980E+01 0.87898936480E+01 0.10279520616E+02 0.14956598720E+02 0.24727580596E+02
 0.40117478325E+02 0.59900099039E+02 0.81056238496E+02 0.99196648489E+02 0.10975497385E+03
 0.85019886375E+02 0.80810063028E+02 0.69388181747E+02 0.53827288787E+02 0.37798236412E+02
 0.24341216041E+02 0.15139894930E+02 0.10301125851E+02 0.85357879587E+01 0.78853646193E+01
 0.76525069018E+01 0.78853925618E+01 0.85358158904E+01 0.10301132086E+02 0.15139888123E+02
 0.24341219448E+02 0.37798255727E+02 0.53827306615E+02 0.69388183354E+02 0.80810055743E+02
 0.80811687064E+02 0.80810059300E+02 0.72992496504E+02 0.59546890860E+02 0.43895658514E+02
 0.29411425257E+02 0.18439529082E+02 0.11837317772E+02 0.89514081168E+01 0.80103153495E+01
 0.75696090879E+01 0.75694970746E+01 0.80102079030E+01 0.89515442275E+01 0.11837395096E+02
 0.18439154391E+02 0.29411106293E+02 0.43896723755E+02 0.59549932153E+02 0.72996101828E+02
 0.69390601552E+02 0.73015689961E+02 0.69388182886E+02 0.59546894835E+02 0.46148733091E+02
 0.32399632964E+02 0.20976574449E+02 0.13337394248E+02 0.94789570056E+01 0.81141834980E+01
 0.75191952813E+01 0.73064419657E+01 0.75189289869E+01 0.81141483466E+01 0.94791953829E+01
 0.13337205433E+02 0.20975608981E+02 0.32398878576E+02 0.46149681623E+02 0.59549578776E+02
 0.53826238529E+02 0.59607107718E+02 0.59607453324E+02 0.53827296474E+02 0.43895656552E+02
 0.32399629061E+02 0.21928579470E+02 0.14265386682E+02 0.99407029728E+01 0.82017010224E+01
 0.74944606422E+01 0.71175019826E+01 0.71173763964E+01 0.74943119942E+01 0.82018593235E+01
 0.99410236796E+01 0.14265258716E+02 0.21927564929E+02 0.32397961964E+02 0.43894024347E+02
 0.37794867571E+02 0.44002323003E+02 0.46295806158E+02 0.44005002480E+02 0.37798236479E+02
 0.29411417604E+02 0.20976577476E+02 0.14265390331E+02 0.10124960963E+02 0.82632899601E+01
 0.74853134792E+01 0.70029230119E+01 0.68384157279E+01 0.70029384844E+01 0.74853199737E+01
 0.82635050564E+01 0.10125687133E+02 0.14266326802E+02 0.20976578938E+02 0.29409474971E+02
 0.24340896611E+02 0.29569735232E+02 0.32646285136E+02 0.32647198143E+02 0.29571358622E+02
 0.24341212278E+02 0.18439530398E+02 0.13337401526E+02 0.99406988989E+01 0.82632867272E+01
 0.74833417232E+01 0.69509093690E+01 0.66814245042E+01 0.66815576846E+01 0.69509811318E+01
 0.74830337760E+01 0.82631822199E+01 0.99417689296E+01 0.13339512968E+02 0.18441108549E+02
 0.15142306322E+02 0.18640272994E+02 0.21314499459E+02 0.22314974743E+02 0.21313546415E+02
 0.18638334659E+02 0.15139892001E+02 0.11837321646E+02 0.94789543534E+01 0.82016944934E+01
 0.74853185170E+01 0.69509120719E+01 0.66316897279E+01 0.65280453174E+01 0.66319414815E+01
 0.69507103108E+01 0.74843500166E+01 0.82007392214E+01 0.94791953829E+01 0.11839078433E+02
 0.10300997149E+02 0.12055124340E+02 0.13731469416E+02 0.14756624033E+02 0.14755569648E+02
 0.13729185335E+02 0.12053446751E+02 0.10301123246E+02 0.89514104377E+01 0.81141798174E+01
 0.74944644427E+01 0.70029284490E+01 0.66814185009E+01 0.65280431306E+01 0.65282322704E+01
 0.66817455836E+01 0.70028035469E+01 0.74933788451E+01 0.81122985855E+01 0.89497779685E+01
 0.85331390499E+01 0.91631233842E+01 0.98841393415E+01 0.10480186106E+02 0.10711950350E+02
 0.10479448020E+02 0.98841383853E+01 0.91648716365E+01 0.85357921064E+01 0.80103173612E+01
 0.75191933382E+01 0.71175050178E+01 0.68384108358E+01 0.66815534384E+01 0.66319483694E+01
 0.66817473408E+01 0.68391270435E+01 0.71184444830E+01 0.75191876285E+01 0.80085765815E+01
 0.78852656204E+01 0.82117927797E+01 0.85049382797E+01 0.87423134916E+01 0.88871470353E+01
 0.88874629302E+01 0.87434211723E+01 0.85067816458E+01 0.82134180896E+01 0.78853696013E+01
 0.75696041969E+01 0.73064403117E+01 0.71173780764E+01 0.70029364451E+01 0.69509869978E+01
 0.69507134739E+01 0.70027960705E+01 0.71184431278E+01 0.73085536057E+01 0.75712553375E+01
 0.76549251007E+01 0.77679321493E+01 0.78979162448E+01 0.80224223002E+01 0.81135908097E+01
 0.81475709739E+01 0.81145413594E+01 0.80233493353E+01 0.78976823808E+01 0.77662038272E+01
 0.76525051215E+01 0.75694930911E+01 0.75189346967E+01 0.74943136696E+01 0.74853185170E+01
 0.74830347224E+01 0.74843435222E+01 0.74933767200E+01 0.75191952813E+01 0.75712562451E+01
 0.78852581984E+01 0.77679317368E+01 0.76819991987E+01 0.76386510554E+01 0.76296178347E+01
 0.76340663440E+01 0.76343291980E+01 0.76297424197E+01 0.76375938423E+01 0.76799239003E+01
 0.77663260838E+01 0.78853901217E+01 0.80102109402E+01 0.81141513009E+01 0.82018529299E+01
 0.82635031428E+01 0.82631835391E+01 0.82007393568E+01 0.81123052203E+01 0.80085776070E+01
 0.85331327436E+01 0.82117928853E+01 0.78979230177E+01 0.76386509557E+01 0.74643833995E+01
 0.73726004249E+01 0.73452479538E+01 0.73724154954E+01 0.74636694620E+01 0.76377002633E+01
 0.78979193969E+01 0.82135450310E+01 0.85358137317E+01 0.89515453751E+01 0.94791913696E+01
 0.99410217354E+01 0.10125693903E+02 0.99417710594E+01 0.94791940217E+01 0.89497767953E+01
 0.10300998720E+02 0.91631254775E+01 0.85049438189E+01 0.80224211182E+01 0.76296120965E+01
 0.73726010068E+01 0.72512517041E+01 0.72510739959E+01 0.73722883644E+01 0.76297217096E+01
 0.80234606307E+01 0.85067818354E+01 0.91647445054E+01 0.10301131053E+02 0.11837396761E+02
 0.13337205820E+02 0.14265263200E+02 0.14266327638E+02 0.13339506078E+02 0.11839076224E+02
 0.15142313129E+02 0.12055126494E+02 0.98841374946E+01 0.87423106975E+01 0.81135864142E+01
 0.76340684457E+01 0.73452524459E+01 0.72510730822E+01 0.73450109377E+01 0.76342742678E+01
 0.81145413594E+01 0.87432427402E+01 0.98838797438E+01 0.12053363304E+02 0.15139892001E+02
 0.18439156071E+02 0.20975607519E+02 0.21927562874E+02 0.20976574449E+02 0.18441108912E+02
 0.24340900756E+02 0.18640271550E+02 0.13731463012E+02 0.10480184169E+02 0.88871491421E+01
 0.81475741602E+01 0.76343322402E+01 0.73724128526E+01 0.73722851397E+01 0.76342752083E+01
 0.81479020948E+01 0.88872745863E+01 0.10479132735E+02 0.13729365683E+02 0.18638701959E+02
 0.24341219829E+02 0.29411102319E+02 0.32398876260E+02 0.32397963551E+02 0.29409478650E+02
 0.37794865629E+02 0.29569730277E+02 0.21314496041E+02 0.14756626332E+02 0.10711955948E+02
 0.88874644274E+01 0.81145389984E+01 0.76297392275E+01 0.74636678314E+01 0.76297242557E+01
 0.81145433939E+01 0.88872739767E+01 0.10711256408E+02 0.14755704585E+02 0.21314498999E+02
 0.29571681458E+02 0.37798253852E+02 0.43896724639E+02 0.46149685676E+02 0.43894027193E+02
 0.53826234375E+02 0.44002319785E+02 0.32646287558E+02 0.22314980447E+02 0.14755571919E+02
 0.10479445042E+02 0.87434166008E+01 0.80233483998E+01 0.76375965431E+01 0.76377030638E+01
 0.80234608771E+01 0.87432409627E+01 0.10479131693E+02 0.14755704558E+02 0.22315977140E+02
 0.32647929719E+02 0.44003948068E+02 0.53827310148E+02 0.59549933946E+02 0.59549576594E+02
 0.69390599945E+02 0.59607110824E+02 0.46295810226E+02 0.32647201483E+02 0.21313543457E+02
 0.13729179389E+02 0.98841374946E+01 0.85067850261E+01 0.78976860016E+01 0.76799244396E+01
 0.78979162448E+01 0.85067796765E+01 0.98838807000E+01 0.13729366141E+02 0.21314499459E+02
 0.32647930638E+02 0.46294836201E+02 0.59604416899E+02 0.69388182886E+02 0.72996096163E+02
 0.80811687758E+02 0.73015697079E+02 0.59607454432E+02 0.44004998928E+02 0.29571355008E+02
 0.18638331535E+02 0.12053450273E+02 0.91648773388E+01 0.82134176156E+01 0.77662005856E+01
 0.77663232547E+01 0.82135444514E+01 0.91647481144E+01 0.12053364672E+02 0.18638700279E+02
 0.29571682799E+02 0.44003947733E+02 0.59604414901E+02 0.73012080532E+02 0.80810052709E+02
 0.55369393701E+02 0.52608990579E+02 0.45133871110E+02 0.35018616916E+02 0.24780387712E+02
 0.16500718641E+02 0.11222686088E+02 0.87410732697E+01 0.78113604803E+01 0.72796477366E+01
 0.70949211551E+01 0.72796658747E+01 0.78113775310E+01 0.87410749842E+01 0.11222679795E+02
 0.16500721294E+02 0.24780402692E+02 0.35018630696E+02 0.45133872596E+02 0.52608985282E+02
 0.52609863556E+02 0.52608987119E+02 0.47475279540E+02 0.38685451576E+02 0.28580721734E+02
 0.19487099004E+02 0.12963265329E+02 0.93930436285E+01 0.79847159486E+01 0.73271639386E+01