   2   2   0   0
  0.8796533E+01  0.2260100E-09  0.2260100E-09  0.3977000E-09  0.5000000E-15
  1.000000000000000E-004
  CAR 
 unknown system                          
     78.65919276     -4.85011863  301      8.69017992      1.00000000
     -4.850  0.0000E+00  0.0000E+00
     -4.572  0.0000E+00  0.0000E+00
     -4.293  0.0000E+00  0.0000E+00
     -4.015  0.0000E+00  0.0000E+00
     -3.737  0.0000E+00  0.0000E+00
     -3.458  0.0000E+00  0.0000E+00
     -3.180  0.0000E+00  0.0000E+00
     -2.902 -0.1248E-38 -0.3473E-39
     -2.623 -0.2243E-28 -0.6244E-29
     -2.345 -0.8130E-20 -0.2263E-20
     -2.066 -0.5665E-13 -0.1577E-13
     -1.788 -0.7866E-08 -0.2190E-08
     -1.510 -0.2014E-04 -0.5608E-05
     -1.231 -0.4116E-03 -0.1202E-03
     -0.953  0.8619E-02  0.2279E-02
     -0.675  0.4306E-01  0.1426E-01
     -0.396  0.9255E-01  0.4003E-01
     -0.118  0.5478E-01  0.5528E-01
      0.160  0.1265E+00  0.9048E-01
      0.439  0.1590E+00  0.1347E+00
      0.717  0.1790E+00  0.1846E+00
      0.996  0.9281E-01  0.2104E+00
      1.274  0.1669E+00  0.2569E+00
      1.552  0.3203E+00  0.3460E+00
      1.831  0.2517E+00  0.4161E+00
      2.109  0.3343E+00  0.5091E+00
      2.387  0.2081E+00  0.5671E+00
      2.666  0.4601E+00  0.6951E+00
      2.944  0.1547E+01  0.1126E+01
      3.222  0.1788E+01  0.1623E+01
      3.501  0.1981E+01  0.2175E+01
      3.779  0.2535E+01  0.2880E+01
      4.058  0.2470E+01  0.3568E+01
      4.336  0.2134E+01  0.4162E+01
      4.614  0.2133E+01  0.4755E+01
      4.893  0.2838E+01  0.5545E+01
      5.171  0.2513E+01  0.6245E+01
      5.449  0.2687E+01  0.6993E+01
      5.728  0.1984E+01  0.7545E+01
      6.006  0.1925E+01  0.8081E+01
      6.284  0.2910E+01  0.8891E+01
      6.563  0.3247E+01  0.9795E+01
      6.841  0.3149E+01  0.1067E+02
      7.120  0.3273E+01  0.1158E+02
      7.398  0.3053E+01  0.1243E+02
      7.676  0.3229E+01  0.1333E+02
      7.955  0.2675E+01  0.1408E+02
      8.233  0.2420E+01  0.1475E+02
      8.511  0.2924E+01  0.1556E+02
      8.790  0.2326E+01  0.1621E+02
      9.068  0.2126E+01  0.1680E+02
      9.346  0.3474E+01  0.1777E+02
      9.625  0.4179E+01  0.1893E+02
      9.903  0.3677E+01  0.1996E+02
     10.182  0.3622E+01  0.2097E+02
     10.460  0.1006E+01  0.2125E+02
     10.738  0.7914E-01  0.2127E+02
     11.017  0.4511E+00  0.2139E+02
     11.295  0.7126E+00  0.2159E+02
     11.573  0.6345E+00  0.2177E+02
     11.852  0.5389E+00  0.2192E+02
     12.130  0.5658E+00  0.2208E+02
     12.408  0.4253E+00  0.2219E+02
     12.687  0.2891E+00  0.2227E+02
     12.965  0.2792E+00  0.2235E+02
     13.244  0.4741E+00  0.2248E+02
     13.522  0.6296E+00  0.2266E+02
     13.800  0.4447E+00  0.2278E+02
     14.079  0.3505E+00  0.2288E+02
     14.357  0.3298E+00  0.2297E+02
     14.635  0.5255E+00  0.2312E+02
     14.914  0.2563E+00  0.2319E+02
     15.192  0.2637E+00  0.2326E+02
     15.470  0.3117E+00  0.2335E+02
     15.749  0.3328E+00  0.2344E+02
     16.027  0.3585E+00  0.2354E+02
     16.306  0.2266E+00  0.2361E+02
     16.584  0.3192E+00  0.2369E+02
     16.862  0.4771E+00  0.2383E+02
     17.141  0.2349E+00  0.2389E+02
     17.419  0.1085E+00  0.2392E+02
     17.697  0.2128E+00  0.2398E+02
     17.976  0.2163E+00  0.2404E+02
     18.254  0.2004E+00  0.2410E+02
     18.532  0.1577E+00  0.2414E+02
     18.811  0.1869E+00  0.2419E+02
     19.089  0.1978E+00  0.2425E+02
     19.368  0.6145E+00  0.2442E+02
     19.646  0.3075E+00  0.2451E+02
     19.924  0.5230E+00  0.2465E+02
     20.203  0.9692E+00  0.2492E+02
     20.481  0.7258E+00  0.2512E+02
     20.759  0.5535E+00  0.2528E+02
     21.038  0.5740E+00  0.2544E+02
     21.316  0.6196E+00  0.2561E+02
     21.594  0.4208E+00  0.2573E+02
     21.873  0.8507E+00  0.2596E+02
     22.151  0.7602E+00  0.2618E+02
     22.430  0.4733E+00  0.2631E+02
     22.708  0.8786E+00  0.2655E+02
     22.986  0.5096E+00  0.2669E+02
     23.265  0.6937E+00  0.2689E+02
     23.543  0.6153E+00  0.2706E+02
     23.821  0.5331E+00  0.2721E+02
     24.100  0.8220E+00  0.2743E+02
     24.378  0.3587E+00  0.2753E+02
     24.657  0.6422E+00  0.2771E+02
     24.935  0.5394E+00  0.2786E+02
     25.213  0.5277E+00  0.2801E+02
     25.492  0.6778E+00  0.2820E+02
     25.770  0.5631E+00  0.2836E+02
     26.048  0.6645E+00  0.2854E+02
     26.327  0.5830E+00  0.2870E+02
     26.605  0.6213E+00  0.2888E+02
     26.883  0.7925E+00  0.2910E+02
     27.162  0.1158E+01  0.2942E+02
     27.440  0.6937E+00  0.2961E+02
     27.719  0.9331E+00  0.2987E+02
     27.997  0.8493E+00  0.3011E+02
     28.275  0.2916E+00  0.3019E+02
     28.554  0.1015E+01  0.3047E+02
     28.832  0.8084E+00  0.3070E+02
     29.110  0.1126E+01  0.3101E+02
     29.389  0.8849E+00  0.3126E+02
     29.667  0.8515E+00  0.3149E+02
     29.945  0.8399E+00  0.3173E+02
     30.224  0.8650E+00  0.3197E+02
     30.502  0.9898E+00  0.3224E+02
     30.781  0.1005E+01  0.3252E+02
     31.059  0.7068E+00  0.3272E+02
     31.337  0.5325E+00  0.3287E+02
     31.616  0.8135E+00  0.3309E+02
     31.894  0.1216E+01  0.3343E+02
     32.172  0.6149E+00  0.3360E+02
     32.451  0.9328E+00  0.3386E+02
     32.729  0.1216E+01  0.3420E+02
     33.007  0.3226E+00  0.3429E+02
     33.286  0.3629E+00  0.3439E+02
     33.564  0.8153E+00  0.3462E+02
     33.843  0.9398E+00  0.3488E+02
     34.121  0.4453E+00  0.3501E+02
     34.399  0.8777E+00  0.3525E+02
     34.678  0.4311E+00  0.3537E+02
     34.956  0.8661E+00  0.3561E+02
     35.234  0.5699E+00  0.3577E+02
     35.513  0.5683E+00  0.3593E+02
     35.791  0.5887E+00  0.3609E+02
     36.069  0.4457E+00  0.3622E+02
     36.348  0.8091E+00  0.3644E+02
     36.626  0.6831E+00  0.3663E+02
     36.905  0.6522E+00  0.3681E+02
     37.183  0.8325E+00  0.3704E+02
     37.461  0.7092E+00  0.3724E+02
     37.740  0.6647E+00  0.3743E+02
     38.018  0.9966E+00  0.3770E+02
     38.296  0.6824E+00  0.3789E+02
     38.575  0.1045E+01  0.3819E+02
     38.853  0.7184E+00  0.3839E+02
     39.131  0.7548E+00  0.3860E+02
     39.410  0.1158E+01  0.3892E+02
     39.688  0.9071E+00  0.3917E+02
     39.967  0.7024E+00  0.3937E+02
     40.245  0.6235E+00  0.3954E+02
     40.523  0.9970E+00  0.3982E+02
     40.802  0.1379E+01  0.4020E+02
     41.080  0.7066E+00  0.4040E+02
     41.358  0.1009E+01  0.4068E+02
     41.637  0.7521E+00  0.4089E+02
     41.915  0.6566E+00  0.4107E+02
     42.193  0.8921E+00  0.4132E+02
     42.472  0.4305E+00  0.4144E+02
     42.750  0.8092E+00  0.4166E+02
     43.029  0.7596E+00  0.4188E+02
     43.307  0.8494E+00  0.4211E+02
     43.585  0.5539E+00  0.4227E+02
     43.864  0.6385E+00  0.4244E+02
     44.142  0.6736E+00  0.4263E+02
     44.420  0.1413E+01  0.4302E+02
     44.699  0.6980E+00  0.4322E+02
     44.977  0.7833E+00  0.4344E+02
     45.255  0.8669E+00  0.4368E+02
     45.534  0.5436E+00  0.4383E+02
     45.812  0.5430E+00  0.4398E+02
     46.091  0.6945E+00  0.4417E+02
     46.369  0.6965E+00  0.4437E+02
     46.647  0.1067E+01  0.4467E+02
     46.926  0.1054E+01  0.4496E+02
     47.204  0.1117E+01  0.4527E+02
     47.482  0.1099E+01  0.4558E+02
     47.761  0.9606E+00  0.4584E+02
     48.039  0.1049E+01  0.4614E+02
     48.317  0.5016E+00  0.4627E+02
     48.596  0.1228E+01  0.4662E+02
     48.874  0.1319E+01  0.4698E+02
     49.153  0.1111E+01  0.4729E+02
     49.431  0.1021E+01  0.4758E+02
     49.709  0.9064E+00  0.4783E+02
     49.988  0.9467E+00  0.4809E+02
     50.266  0.1107E+01  0.4840E+02
     50.544  0.7995E+00  0.4862E+02
     50.823  0.8336E+00  0.4886E+02
     51.101  0.8464E+00  0.4909E+02
     51.379  0.8339E+00  0.4932E+02
     51.658  0.6173E+00  0.4950E+02
     51.936  0.5368E+00  0.4964E+02
     52.215  0.7626E+00  0.4986E+02
     52.493  0.9513E+00  0.5012E+02
     52.771  0.1151E+01  0.5044E+02
     53.050  0.8370E+00  0.5068E+02
     53.328  0.1203E+01  0.5101E+02
     53.606  0.8841E+00  0.5126E+02
     53.885  0.9395E+00  0.5152E+02
     54.163  0.8883E+00  0.5176E+02
     54.441  0.1170E+01  0.5209E+02
     54.720  0.8868E+00  0.5234E+02
     54.998  0.1086E+01  0.5264E+02
     55.277  0.5842E+00  0.5280E+02
     55.555  0.7302E+00  0.5301E+02
     55.833  0.1461E+01  0.5341E+02
     56.112  0.1330E+01  0.5378E+02
     56.390  0.1312E+01  0.5415E+02
     56.668  0.1116E+01  0.5446E+02
     56.947  0.1400E+01  0.5485E+02
     57.225  0.7291E+00  0.5505E+02
     57.504  0.7342E+00  0.5526E+02
     57.782  0.1554E+01  0.5569E+02
     58.060  0.1182E+01  0.5602E+02
     58.339  0.8376E+00  0.5625E+02
     58.617  0.1033E+01  0.5654E+02
     58.895  0.1087E+01  0.5684E+02
     59.174  0.1600E+01  0.5729E+02
     59.452  0.1356E+01  0.5766E+02
     59.730  0.1018E+01  0.5795E+02
     60.009  0.1280E+01  0.5830E+02
     60.287  0.1229E+01  0.5864E+02
     60.566  0.1769E+01  0.5914E+02
     60.844  0.1588E+01  0.5958E+02
     61.122  0.1427E+01  0.5998E+02
     61.401  0.1289E+01  0.6034E+02
     61.679  0.1672E+01  0.6080E+02
     61.957  0.2104E+01  0.6139E+02
     62.236  0.2235E+01  0.6201E+02
     62.514  0.1850E+01  0.6252E+02
     62.792  0.1971E+01  0.6307E+02
     63.071  0.1559E+01  0.6351E+02
     63.349  0.2986E+01  0.6434E+02
     63.628  0.2897E+01  0.6514E+02
     63.906  0.2328E+01  0.6579E+02
     64.184  0.2237E+01  0.6641E+02
     64.463  0.1891E+01  0.6694E+02
     64.741  0.1722E+01  0.6742E+02
     65.019  0.1081E+01  0.6772E+02
     65.298  0.1591E+01  0.6816E+02
     65.576  0.1341E+01  0.6854E+02
     65.854  0.1575E+01  0.6898E+02
     66.133  0.1607E+01  0.6942E+02
     66.411  0.1279E+01  0.6978E+02
     66.690  0.1614E+01  0.7023E+02
     66.968  0.1157E+01  0.7055E+02
     67.246  0.1198E+01  0.7088E+02
     67.525  0.1362E+01  0.7126E+02
     67.803  0.1383E+01  0.7165E+02
     68.081  0.1265E+01  0.7200E+02
     68.360  0.1253E+01  0.7235E+02
     68.638  0.1497E+01  0.7276E+02
     68.916  0.1772E+01  0.7326E+02
     69.195  0.1201E+01  0.7359E+02
     69.473  0.9176E+00  0.7385E+02
     69.752  0.1295E+01  0.7421E+02
     70.030  0.1705E+01  0.7468E+02
     70.308  0.1711E+01  0.7516E+02
     70.587  0.1332E+01  0.7553E+02
     70.865  0.1487E+01  0.7594E+02
     71.143  0.1022E+01  0.7623E+02
     71.422  0.1433E+01  0.7663E+02
     71.700  0.1350E+01  0.7700E+02
     71.978  0.1558E+01  0.7744E+02
     72.257  0.9587E+00  0.7770E+02
     72.535  0.1014E+01  0.7799E+02
     72.814  0.1247E+01  0.7833E+02
     73.092  0.1291E+01  0.7869E+02
     73.370  0.7948E+00  0.7891E+02
     73.649  0.8990E+00  0.7916E+02
     73.927  0.1257E+01  0.7951E+02
     74.205  0.8054E+00  0.7974E+02
     74.484  0.6533E+00  0.7992E+02
     74.762  0.2245E+00  0.7998E+02
     75.040  0.6467E-01  0.8000E+02
     75.319 -0.1756E-02  0.8000E+02
     75.597 -0.1980E-03  0.8000E+02
     75.876 -0.8897E-07  0.8000E+02
     76.154 -0.6682E-12  0.8000E+02
     76.432  0.0000E+00  0.8000E+02
     76.711  0.0000E+00  0.8000E+02
     76.989  0.0000E+00  0.8000E+02
     77.267  0.0000E+00  0.8000E+02
     77.546  0.0000E+00  0.8000E+02
     77.824  0.0000E+00  0.8000E+02
     78.102  0.0000E+00  0.8000E+02
     78.381  0.0000E+00  0.8000E+02
     78.659  0.0000E+00  0.8000E+02
