unknown system                          
   1.00000000000000     
     2.283400    0.000000    0.000000
    -1.141700    1.977482    0.000000
     0.000000    0.000000    3.857280
   Fe
     2
Direct
  0.000000  0.000000  0.000000
  0.333333  0.666667  0.500000
 
   20   20   32
  145.98      138.62      118.76      91.876      64.196      40.577      23.652      13.866      9.7860      8.7055    
  8.4139      8.7055      9.7861      13.866      23.652      40.577      64.196      91.876      118.76      138.62    
  138.62      138.62      125.05      101.83      74.892      49.743      30.063      17.335      11.018      8.9544    
  8.3935      8.3933      8.9542      11.018      17.335      30.062      49.742      74.894      101.84      125.06    
  118.77      125.02      118.76      101.83      78.837      55.092      34.867      20.539      12.479      9.2796    
  8.3925      8.1149      8.3921      9.2797      12.480      20.539      34.865      55.090      78.839      101.84    
  91.874      101.75      101.75      91.876      74.892      55.092      36.650      22.464      13.676      9.6556    
  8.4041      7.9066      7.9064      8.4039      9.6562      13.677      22.464      36.648      55.088      74.888    
  64.188      74.783      78.686      74.789      64.196      49.743      34.867      22.464      14.138      9.9152    
  8.4189      7.7784      7.5508      7.7784      8.4189      9.9160      14.140      22.467      34.867      49.738    
  40.576      49.658      54.939      54.942      49.662      40.577      30.063      20.539      13.676      9.9152    
  8.4272      7.7205      7.3448      7.3449      7.7202      8.4263      9.9150      13.679      20.544      30.067    
  23.658      30.041      34.792      36.549      34.790      30.036      23.652      17.335      12.479      9.6556    
  8.4189      7.7205      7.2788      7.1319      7.2791      7.7197      8.4164      9.6532      12.480      17.339    
  13.866      17.365      20.565      22.474      22.471      20.559      17.361      13.866      11.018      9.2796    
  8.4041      7.7784      7.3448      7.1319      7.1325      7.3458      7.7782      8.4014      9.2750      11.014    
  9.7800      11.068      12.569      13.783      14.248      13.781      12.569      11.072      9.7861      8.9544    
  8.3925      7.9066      7.5508      7.3449      7.2792      7.3458      7.5529      7.9090      8.3925      8.9503    
  8.7053      9.0116      9.3906      9.8080      10.090      10.091      9.8110      9.3952      9.0154      8.7055    
  8.3935      8.1149      7.9064      7.7783      7.7203      7.7197      7.7782      7.9090      8.1198      8.3974    
  8.4196      8.4591      8.5125      8.5706      8.6191      8.6408      8.6215      8.5731      8.5122      8.4551    
  8.4139      8.3933      8.3921      8.4039      8.4189      8.4263      8.4164      8.4014      8.3925      8.3974    
  8.7053      8.4591      8.2409      8.0835      7.9944      7.9590      7.9595      7.9945      8.0809      8.2361    
  8.4553      8.7055      8.9542      9.2797      9.6562      9.9160      9.9150      9.6532      9.2751      8.9504    
  9.7800      9.0116      8.5125      8.0835      7.7740      7.5994      7.5446      7.5986      7.7719      8.0811    
  8.5125      9.0156      9.7861      11.018      12.480      13.677      14.140      13.679      12.480      11.014    
  13.866      11.068      9.3907      8.5706      7.9944      7.5994      7.4075      7.4070      7.5985      7.9945    
  8.5732      9.3951      11.072      13.866      17.335      20.539      22.464      22.467      20.544      17.339    
  23.658      17.365      12.569      9.8080      8.6190      7.9590      7.5446      7.4070      7.5442      7.9598    
  8.6215      9.8104      12.569      17.361      23.652      30.062      34.865      36.648      34.867      30.067    
  40.576      30.041      20.565      13.783      10.090      8.6408      7.9596      7.5986      7.5985      7.9598    
  8.6417      10.090      13.780      20.560      30.037      40.577      49.742      55.090      55.088      49.738    
  64.188      49.658      34.792      22.474      14.248      10.091      8.6215      7.9945      7.7719      7.9946    
  8.6215      10.090      14.245      22.471      34.792      49.663      64.196      74.894      78.839      74.888    
  91.874      74.783      54.939      36.549      22.471      13.781      9.8110      8.5731      8.0809      8.0811    
  8.5732      9.8104      13.780      22.471      36.551      54.943      74.786      91.876      101.84      101.84    
  118.77      101.75      78.686      54.942      34.790      20.559      12.569      9.3953      8.5122      8.2361    
  8.5125      9.3951      12.569      20.560      34.792      54.943      78.683      101.75      118.76      125.06    
  138.62      125.02      101.75      74.789      49.662      30.036      17.361      11.072      9.0154      8.4551    
  8.4553      9.0156      11.072      17.361      30.037      49.663      74.786      101.75      125.01      138.62    
  137.77      130.83      112.10      86.723      60.575      38.288      22.393      13.297      9.5741      8.5783    
  8.2928      8.5783      9.5741      13.297      22.393      38.288      60.575      86.723      112.10      130.83    
  130.84      130.83      118.03      96.120      70.665      46.913      28.382      16.488      10.671      8.8041    
  8.2613      8.2611      8.8039      10.671      16.488      28.381      46.912      70.668      96.126      118.04    
  112.11      118.01      112.10      96.120      74.387      51.951      32.882      19.453      11.989      9.0824    
  8.2527      7.9825      8.2523      9.0824      11.989      19.452      32.880      51.950      74.389      96.126    
  86.721      96.059      96.060      86.723      70.665      51.951      34.554      21.240      13.076      9.4063    
  8.2594      7.7761      7.7759      8.2592      9.4069      13.077      21.240      34.552      51.948      70.662    
  60.567      70.588      74.280      70.594      60.575      46.913      32.882      21.240      13.498      9.6323    
  8.2705      7.6499      7.4306      7.6499      8.2705      9.6330      13.500      21.243      32.882      46.909    
  38.287      46.866      51.859      51.861      46.869      38.288      28.382      19.453      13.076      9.6323    
  8.2764      7.5930      7.2317      7.2319      7.5929      8.2755      9.6322      13.079      19.458      28.385    
  22.398      28.396      32.874      34.531      32.871      28.392      22.393      16.488      11.989      9.4063    
  8.2705      7.5930      7.1682      7.0275      7.1685      7.5923      8.2682      9.4041      11.989      16.491    
  13.297      16.550      19.542      21.331      21.328      19.536      16.546      13.297      10.671      9.0824    
  8.2594      7.6500      7.2317      7.0275      7.0280      7.2326      7.6498      8.2569      9.0781      10.667    
  9.5685      10.750      12.135      13.260      13.692      13.258      12.135      10.754      9.5741      8.8041    
  8.2527      7.7762      7.4306      7.2318      7.1685      7.2326      7.4325      7.7784      8.2526      8.8004    
  8.5781      8.8877      9.2448      9.6301      9.8895      9.8904      9.6329      9.2490      8.8913      8.5783    
  8.2613      7.9825      7.7760      7.6499      7.5929      7.5924      7.6497      7.7784      7.9871      8.2649    
  8.2981      8.3519      8.4212      8.4940      8.5516      8.5754      8.5539      8.4963      8.4209      8.3482    
  8.2928      8.2611      8.2523      8.2592      8.2705      8.2755      8.2681      8.2569      8.2527      8.2649    
  8.5781      8.3519      8.1560      8.0193      7.9458      7.9187      7.9192      7.9459      8.0169      8.1515    
  8.3484      8.5783      8.8040      9.0824      9.4068      9.6330      9.6322      9.4041      9.0782      8.8004    
  9.5684      8.8877      8.4212      8.0193      7.7332      7.5737      7.5241      7.5730      7.7312      8.0171    
  8.4212      8.8915      9.5741      10.671      11.989      13.077      13.500      13.079      11.989      10.667    
  13.297      10.750      9.2448      8.4940      7.9458      7.5737      7.3942      7.3937      7.5729      7.9460    
  8.4964      9.2489      10.754      13.297      16.488      19.452      21.240      21.243      19.458      16.491    
  22.398      16.550      12.135      9.6301      8.5516      7.9187      7.5242      7.3937      7.5238      7.9194    
  8.5539      9.6323      12.135      16.546      22.393      28.381      32.880      34.552      32.882      28.385    
  38.287      28.396      19.542      13.260      9.8895      8.5754      7.9192      7.5730      7.5729      7.9194    
  8.5763      9.8897      13.257      19.537      28.393      38.288      46.912      51.950      51.948      46.909    
  60.567      46.866      32.874      21.331      13.692      9.8904      8.5539      7.9459      7.7312      7.9460    
  8.5539      9.8897      13.690      21.329      32.874      46.870      60.575      70.668      74.389      70.662    
  86.721      70.588      51.859      34.531      21.328      13.258      9.6329      8.4963      8.0169      8.0171    
  8.4964      9.6323      13.257      21.329      34.533      51.863      70.591      86.723      96.126      96.126    
  112.11      96.059      74.280      51.861      32.871      19.536      12.135      9.2490      8.4209      8.1515    
  8.4212      9.2489      12.135      19.537      32.874      51.863      74.278      96.053      112.10      118.04    
  130.84      118.01      96.060      70.594      46.869      28.392      16.546      10.754      8.8913      8.3482    
  8.3484      8.8915      10.754      16.546      28.393      46.870      70.591      96.053      118.00      130.83    
  115.85      110.04      94.301      72.923      50.887      32.207      19.098      11.848      9.0413      8.2310    
  7.9648      8.2310      9.0413      11.848      19.098      32.207      50.887      72.923      94.301      110.04    
  110.04      110.04      99.279      80.820      59.350      39.367      23.949      14.301      9.8008      8.4069    
  7.9048      7.9047      8.4067      9.8010      14.301      23.948      39.367      59.352      80.825      99.285    
  94.305      99.276      94.301      80.820      62.473      43.564      27.627      16.627      10.747      8.5806    
  7.8742      7.6265      7.8738      8.5806      10.747      16.626      27.625      43.563      62.475      80.825    
  72.921      80.814      80.814      72.923      59.350      43.564      28.999      18.043      11.547      8.7781    
  7.8652      7.4244      7.4242      7.8651      8.7785      11.547      18.043      28.997      43.561      59.347    
  50.881      59.357      62.482      59.362      50.887      39.367      27.627      18.043      11.860      8.9203    
  7.8667      7.3017      7.1058      7.3016      7.8667      8.9208      11.862      18.045      27.627      39.364    
  32.206      39.419      43.634      43.635      39.422      32.207      23.949      16.627      11.547      8.9203    
  7.8685      7.2463      6.9250      6.9251      7.2463      7.8678      8.9202      11.549      16.631      23.952    
  19.103      24.058      27.792      29.179      27.790      24.055      19.098      14.301      10.747      8.7781    
  7.8667      7.2463      6.8675      6.7436      6.8678      7.2458      7.8649      8.7764      10.747      14.304    
  11.848      14.447      16.877      18.344      18.342      16.873      14.444      11.848      9.8008      8.5806    
  7.8653      7.3017      6.9249      6.7436      6.7440      6.9256      7.3015      7.8633      8.5772      9.7979    
  9.0367      9.9532      11.035      11.925      12.269      11.924      11.035      9.9562      9.0413      8.4069    
  7.8742      7.4244      7.1058      6.9251      6.8679      6.9256      7.1072      7.4261      7.8742      8.4038    
  8.2309      8.5563      8.8707      9.1796      9.3832      9.3839      9.1817      8.8741      8.5591      8.2310    
  7.9048      7.6265      7.4242      7.3016      7.2463      7.2458      7.3015      7.4261      7.6302      7.9077    
  7.9690      8.0568      8.1619      8.2665      8.3455      8.3759      8.3473      8.2682      8.1616      8.0537    
  7.9648      7.9047      7.8738      7.8651      7.8667      7.8678      7.8649      7.8633      7.8742      7.9077    
  8.2308      8.0568      7.9157      7.8275      7.7891      7.7799      7.7803      7.7892      7.8256      7.9121    
  8.0539      8.2310      8.4067      8.5806      8.7785      8.9208      8.9202      8.7764      8.5772      8.4039    
  9.0367      8.5563      8.1620      7.8275      7.5971      7.4728      7.4351      7.4723      7.5957      7.8258    
  8.1619      8.5593      9.0413      9.8010      10.747      11.547      11.862      11.549      10.747      9.7979    
  11.848      9.9532      8.8708      8.2665      7.7891      7.4728      7.3227      7.3224      7.4722      7.7893    
  8.2684      8.8741      9.9561      11.848      14.301      16.626      18.043      18.045      16.631      14.304    
  19.103      14.447      11.035      9.1796      8.3455      7.7799      7.4351      7.3224      7.4348      7.7804    
  8.3473      9.1813      11.035      14.444      19.098      23.948      27.625      28.997      27.627      23.952    
  32.206      24.058      16.877      11.925      9.3832      8.3759      7.7803      7.4723      7.4722      7.7804    
  8.3765      9.3834      11.923      16.873      24.056      32.207      39.367      43.563      43.561      39.364    
  50.881      39.419      27.792      18.344      12.269      9.3839      8.3473      7.7892      7.5956      7.7893    
  8.3473      9.3834      12.267      18.342      27.792      39.422      50.887      59.352      62.475      59.347    
  72.921      59.357      43.634      29.179      18.342      11.924      9.1817      8.2682      7.8256      7.8258    
  8.2684      9.1813      11.923      18.342      29.181      43.636      59.360      72.923      80.825      80.825    
  94.305      80.814      62.482      43.635      27.790      16.873      11.035      8.8741      8.1616      7.9121    
  8.1619      8.8741      11.035      16.873      27.792      43.636      62.481      80.809      94.301      99.285    
  110.04      99.276      80.814      59.362      39.422      24.055      14.444      9.9563      8.5591      8.0537    
  8.0539      8.5593      9.9561      14.444      24.056      39.422      59.360      80.809      99.270      110.04    
  86.863      82.504      70.685      54.611      38.105      24.319      14.976      10.137      8.4069      7.7535    
  7.5207      7.7535      8.4070      10.137      14.976      24.319      38.105      54.611      70.685      82.504    
  82.506      82.504      74.413      60.514      44.372      29.494      18.300      11.645      8.7941      7.8657    
  7.4240      7.4238      7.8655      8.7943      11.645      18.300      29.493      44.373      60.517      74.417    
  70.688      74.437      70.685      60.514      46.691      32.551      20.869      13.133      9.2921      7.9575    
  7.3600      7.1486      7.3597      7.9575      9.2924      13.133      20.868      32.550      46.692      60.517    
  54.610      60.577      60.578      54.611      44.372      32.551      21.835      14.058      9.7339      8.0304    
  7.3238      6.9495      6.9494      7.3236      8.0306      9.7343      14.058      21.833      32.549      44.370    
  38.101      44.488      46.850      44.491      38.105      29.494      20.869      14.058      9.9114      8.0820    
  7.3071      6.8274      6.6658      6.8274      7.3071      8.0823      9.9122      14.059      20.869      29.491    
  24.319      29.670      32.825      32.826      29.672      24.319      18.300      13.133      9.7339      8.0820    
  7.3024      6.7713      6.5065      6.5067      6.7714      7.3021      8.0819      9.7352      13.136      18.302    
  14.978      18.528      21.251      22.271      21.250      18.526      14.976      11.645      9.2920      8.0304    
  7.3071      6.7713      6.4561      6.3548      6.4564      6.7711      7.3059      8.0293      9.2924      11.647    
  10.136      11.894      13.582      14.617      14.616      13.579      11.892      10.137      8.7941      7.9575    
  7.3238      6.8274      6.5065      6.3548      6.3550      6.5069      6.8273      7.3225      7.9553      8.7921    
  8.4037      9.0352      9.7541      10.349      10.581      10.348      9.7541      9.0373      8.4070      7.8657    
  7.3600      6.9495      6.6658      6.5067      6.4564      6.5069      6.6666      6.9506      7.3600      7.8636    
  7.7534      8.0945      8.4019      8.6458      8.7925      8.7928      8.6470      8.4041      8.0965      7.7535    
  7.4240      7.1486      6.9494      6.8274      6.7715      6.7711      6.8272      6.9506      7.1511      7.4259    
  7.5236      7.6492      7.7902      7.9238      8.0213      8.0577      8.0224      7.9248      7.7899      7.6472    
  7.5207      7.4238      7.3597      7.3236      7.3071      7.3021      7.3059      7.3225      7.3600      7.4259    
  7.7534      7.6492      7.5752      7.5414      7.5393      7.5475      7.5478      7.5394      7.5401      7.5727    
  7.6473      7.7535      7.8655      7.9575      8.0306      8.0823      8.0819      8.0293      7.9553      7.8636    
  8.4037      8.0945      7.7902      7.5414      7.3766      7.2915      7.2666      7.2914      7.3758      7.5403    
  7.7902      8.0967      8.4070      8.7943      9.2924      9.7343      9.9122      9.7352      9.2924      8.7921    
  10.136      9.0352      8.4019      7.9238      7.5393      7.2915      7.1762      7.1760      7.2912      7.5394    
  7.9250      8.4041      9.0371      10.137      11.645      13.133      14.058      14.059      13.136      11.647    
  14.978      11.894      9.7541      8.6457      8.0213      7.5475      7.2666      7.1760      7.2663      7.5477    
  8.0224      8.6469      9.7538      11.892      14.976      18.300      20.868      21.833      20.869      18.302    
  24.319      18.528      13.582      10.349      8.7925      8.0577      7.5478      7.2913      7.2912      7.5477    
  8.0580      8.7926      10.348      13.580      18.526      24.319      29.493      32.550      32.549      29.491    
  38.101      29.670      21.251      14.618      10.581      8.7928      8.0224      7.5394      7.3758      7.5394    
  8.0224      8.7926      10.580      14.616      21.251      29.673      38.105      44.373      46.692      44.370    
  54.610      44.488      32.825      22.271      14.616      10.348      8.6470      7.9248      7.5401      7.5403    
  7.9250      8.6468      10.348      14.616      22.272      32.827      44.490      54.611      60.517      60.517    
  70.688      60.577      46.850      32.826      21.250      13.579      9.7541      8.4041      7.7899      7.5727    
  7.7902      8.4041      9.7538      13.580      21.251      32.827      46.849      60.574      70.685      74.417    
  82.506      74.437      60.578      44.491      29.672      18.526      11.892      9.0373      8.0965      7.6472    
  7.6473      8.0967      9.0371      11.892      18.526      29.673      44.490      60.574      74.433      82.504    
  58.054      55.132      47.219      36.509      25.671      16.918      11.356      8.7615      7.8013      7.2568    
  7.0691      7.2568      7.8013      8.7615      11.356      16.918      25.671      36.509      47.219      55.132    
  55.133      55.132      49.697      40.389      29.689      20.065      13.177      9.4279      7.9663      7.2911    
  6.9327      6.9326      7.2909      7.9665      9.4281      13.177      20.065      29.689      40.391      49.699    
  47.221      49.745      47.219      40.389      31.185      21.955      14.634      10.131      8.1234      7.3185    
  6.8286      6.6622      6.8283      7.3184      8.1237      10.131      14.633      21.955      31.185      40.391    
  36.509      40.515      40.516      36.509      29.689      21.955      15.190      10.586      8.2677      7.3326    
  6.7568      6.4631      6.4629      6.7567      7.3326      8.2678      10.586      15.190      21.954      29.688    
  25.669      29.901      31.477      29.902      25.671      20.065      14.634      10.586      8.3284      7.3367    
  6.7152      6.3366      6.2130      6.3367      6.7153      7.3367      8.3286      10.587      14.634      20.064    
  16.918      20.351      22.409      22.410      20.353      16.918      13.177      10.131      8.2677      7.3367    
  6.7017      6.2765      6.0723      6.0725      6.2767      6.7015      7.3366      8.2684      10.132      13.178    
  11.358      13.509      15.206      15.851      15.206      13.507      11.356      9.4279      8.1234      7.3326    
  6.7153      6.2765      6.0275      5.9489      6.0278      6.2764      6.7147      7.3320      8.1237      9.4291    
  8.7613      9.7685      10.758      11.376      11.375      10.756      9.7676      8.7615      7.9663      7.3185    
  6.7568      6.3367      6.0723      5.9488      5.9489      6.0724      6.3365      6.7562      7.3173      7.9652    
  7.7995      8.2913      8.7468      9.1018      9.2384      9.1013      8.7468      8.2926      7.8013      7.2911    
  6.8286      6.4631      6.2130      6.0725      6.0278      6.0725      6.2132      6.4636      6.8285      7.2899    
  7.2567      7.5989      7.9148      8.1570      8.2881      8.2882      8.1576      7.9159      7.6000      7.2568    
  6.9327      6.6622      6.4629      6.3367      6.2767      6.2765      6.3365      6.4636      6.6636      6.9338    
  7.0707      7.2325      7.4036      7.5594      7.6699      7.7103      7.6705      7.5598      7.4034      7.2313    
  7.0691      6.9326      6.8283      6.7567      6.7153      6.7015      6.7147      6.7562      6.8286      6.9338    
  7.2567      7.2325      7.2303      7.2519      7.2852      7.3099      7.3101      7.2854      7.2512      7.2289    
  7.2315      7.2568      7.2910      7.3184      7.3326      7.3367      7.3366      7.3320      7.3174      7.2899    
  7.7994      7.5989      7.4037      7.2519      7.1584      7.1146      7.1030      7.1147      7.1582      7.2514    
  7.4036      7.6001      7.8013      7.9665      8.1237      8.2678      8.3287      8.2684      8.1237      7.9652    
  8.7613      8.2913      7.9148      7.5594      7.2852      7.1146      7.0373      7.0373      7.1145      7.2853    
  7.5600      7.9160      8.2924      8.7615      9.4281      10.131      10.586      10.587      10.132      9.4291    
  11.358      9.7685      8.7468      8.1570      7.6699      7.3099      7.1030      7.0373      7.1027      7.3099    
  7.6705      8.1576      8.7465      9.7673      11.356      13.177      14.633      15.190      14.634      13.178    
  16.918      13.509      10.757      9.1018      8.2881      7.7104      7.3101      7.1147      7.1145      7.3099    
  7.7105      8.2882      9.1012      10.756      13.507      16.918      20.065      21.955      21.954      20.064    
  25.669      20.351      15.206      11.376      9.2384      8.2882      7.6705      7.2854      7.1581      7.2853    
  7.6705      8.2882      9.2381      11.375      15.206      20.353      25.671      29.689      31.185      29.688    
  36.509      29.901      22.409      15.851      11.375      9.1013      8.1576      7.5598      7.2513      7.2514    
  7.5600      8.1576      9.1012      11.375      15.852      22.410      29.902      36.509      40.391      40.391    
  47.221      40.515      31.477      22.410      15.206      10.756      8.7468      7.9159      7.4034      7.2289    
  7.4036      7.9160      8.7465      10.756      15.206      22.410      31.476      40.514      47.219      49.699    
  55.133      49.745      40.516      29.902      20.353      13.507      9.7676      8.2926      7.6000      7.2313    
  7.2314      7.6001      8.2924      9.7673      13.507      20.353      29.902      40.514      49.743      55.132    
  34.677      32.961      28.346      22.203      16.201      11.654      9.0528      7.9169      7.2517      6.8353    
  6.6973      6.8353      7.2517      7.9169      9.0528      11.654      16.201      22.204      28.346      32.961    
  32.962      32.961      29.769      24.366      18.316      13.139      9.7418      8.0913      7.3154      6.7848    
  6.5188      6.5187      6.7847      7.3155      8.0916      9.7419      13.139      18.316      24.367      29.770    
  28.346      29.830      28.346      24.366      19.115      14.062      10.332      8.2742      7.3492      6.7418    
  6.3725      6.2517      6.3723      6.7417      7.3494      8.2744      10.332      14.061      19.115      24.367    
  22.203      24.528      24.528      22.204      18.316      14.062      10.565      8.4017      7.3589      6.7068    
  6.2638      6.0492      6.0492      6.2637      6.7067      7.3588      8.4015      10.565      14.061      18.315    
  16.200      18.584      19.485      18.585      16.201      13.139      10.332      8.4017      7.3604      6.6862    
  6.1966      5.9155      5.8261      5.9156      6.1967      6.6861      7.3603      8.4017      10.332      13.139    
  11.654      13.493      14.624      14.624      13.493      11.654      9.7418      8.2743      7.3588      6.6861    
  6.1739      5.8494      5.6982      5.6983      5.8496      6.1739      6.6861      7.3591      8.2749      9.7423    
  9.0534      10.142      11.027      11.369      11.027      10.142      9.0528      8.0913      7.3492      6.7068    
  6.1967      5.8494      5.6568      5.5964      5.6570      5.8495      6.1965      6.7066      7.3494      8.0919    
  7.9167      8.5020      9.0296      9.3549      9.3547      9.0292      8.5018      7.9169      7.3154      6.7418    
  6.2638      5.9155      5.6981      5.5964      5.5964      5.6981      5.9154      6.2636      6.7414      7.3150    
  7.2509      7.7157      8.1105      8.3745      8.4679      8.3743      8.1105      7.7162      7.2517      6.7848    
  6.3725      6.0492      5.8260      5.6983      5.6570      5.6981      5.8260      6.0494      6.3725      6.7843    
  6.8352      7.1718      7.4871      7.7332      7.8683      7.8683      7.7333      7.4874      7.1722      6.8353    
  6.5188      6.2517      6.0492      5.9155      5.8497      5.8495      5.9154      6.0494      6.2523      6.5192    
  6.6979      6.8984      7.1023      7.2827      7.4083      7.4536      7.4084      7.2828      7.1022      6.8979    
  6.6973      6.5187      6.3723      6.2637      6.1967      6.1739      6.1965      6.2636      6.3725      6.5192    
  6.8352      6.8984      6.9759      7.0609      7.1367      7.1822      7.1823      7.1369      7.0607      6.9754    
  6.8980      6.8353      6.7847      6.7417      6.7067      6.6860      6.6861      6.7066      6.7414      6.7843    
  7.2509      7.1718      7.1023      7.0609      7.0494      7.0543      7.0586      7.0545      7.0494      7.0608    
  7.1023      7.1723      7.2517      7.3155      7.3494      7.3588      7.3603      7.3591      7.3494      7.3150    
  7.9167      7.7157      7.4871      7.2827      7.1367      7.0543      7.0207      7.0207      7.0544      7.1368    
  7.2829      7.4875      7.7160      7.9169      8.0916      8.2744      8.4015      8.4017      8.2749      8.0919    
  9.0534      8.5020      8.1105      7.7332      7.4083      7.1822      7.0587      7.0207      7.0585      7.1820    
  7.4084      7.7333      8.1103      8.5015      9.0528      9.7419      10.332      10.565      10.332      9.7423    
  11.654      10.142      9.0296      8.3745      7.8683      7.4536      7.1823      7.0545      7.0544      7.1820    
  7.4535      7.8684      8.3743      9.0290      10.142      11.654      13.139      14.061      14.061      13.139    
  16.200      13.493      11.027      9.3549      8.4679      7.8683      7.4084      7.1369      7.0494      7.1368    
  7.4084      7.8684      8.4680      9.3548      11.027      13.493      16.201      18.316      19.115      18.315    
  22.203      18.584      14.624      11.369      9.3547      8.3743      7.7333      7.2827      7.0607      7.0608    
  7.2829      7.7333      8.3743      9.3548      11.369      14.624      18.585      22.204      24.367      24.367    
  28.346      24.528      19.485      14.624      11.027      9.0292      8.1105      7.4874      7.1022      6.9754    
  7.1023      7.4875      8.1103      9.0290      11.027      14.624      19.485      24.527      28.346      29.770    
  32.962      29.830      24.528      18.585      13.493      10.142      8.5018      7.7162      7.1722      6.8979    
  6.8980      7.1723      7.7161      8.5015      10.142      13.493      18.585      24.527      29.829      32.961    
  19.128      18.298      16.102      13.286      10.710      8.9444      7.9836      7.3299      6.8392      6.5515    
  6.4590      6.5515      6.8392      7.3299      7.9836      8.9444      10.710      13.286      16.102      18.298    
  18.298      18.298      16.756      14.214      11.508      9.3783      8.1060      7.3683      6.7949      6.4145    
  6.2323      6.2323      6.4145      6.7950      7.3686      8.1062      9.3784      11.508      14.214      16.756    
  16.102      16.819      16.102      14.214      11.820      9.6677      8.2158      7.3827      6.7561      6.3031    