   2   2   0   0
  0.8708549E+01  0.2283400E-09  0.2283400E-09  0.3857280E-09  0.5000000E-15
  1.000000000000000E-004
  CAR 
 unknown system                          
     79.15616739     -4.80561771  301      8.79324702      1.00000000
     -4.806  0.0000E+00  0.0000E+00
     -4.526  0.0000E+00  0.0000E+00
     -4.246  0.0000E+00  0.0000E+00
     -3.966  0.0000E+00  0.0000E+00
     -3.686  0.0000E+00  0.0000E+00
     -3.406  0.0000E+00  0.0000E+00
     -3.126  0.0000E+00  0.0000E+00
     -2.847 -0.4938E-39 -0.1382E-39
     -2.567 -0.1149E-28 -0.3215E-29
     -2.287 -0.5161E-20 -0.1445E-20
     -2.007 -0.4266E-13 -0.1194E-13
     -1.727 -0.6698E-08 -0.1875E-08
     -1.447 -0.1844E-04 -0.5163E-05
     -1.167 -0.4031E-03 -0.1180E-03
     -0.887  0.8291E-02  0.2202E-02
     -0.608  0.4424E-01  0.1458E-01
     -0.328  0.8737E-01  0.3904E-01
     -0.048  0.5799E-01  0.5527E-01
      0.232  0.1239E+00  0.8995E-01
      0.512  0.1695E+00  0.1374E+00
      0.792  0.1511E+00  0.1797E+00
      1.072  0.1036E+00  0.2087E+00
      1.352  0.1750E+00  0.2577E+00
      1.631  0.3260E+00  0.3489E+00
      1.911  0.2469E+00  0.4180E+00
      2.191  0.2971E+00  0.5012E+00
      2.471  0.2101E+00  0.5600E+00
      2.751  0.6117E+00  0.7312E+00
      3.031  0.1587E+01  0.1175E+01
      3.311  0.1609E+01  0.1626E+01
      3.591  0.2199E+01  0.2241E+01
      3.870  0.2473E+01  0.2933E+01
      4.150  0.2537E+01  0.3644E+01
      4.430  0.1960E+01  0.4192E+01
      4.710  0.2081E+01  0.4774E+01
      4.990  0.2751E+01  0.5544E+01
      5.270  0.2596E+01  0.6271E+01
      5.550  0.2551E+01  0.6985E+01
      5.830  0.1902E+01  0.7517E+01
      6.109  0.1765E+01  0.8011E+01
      6.389  0.2982E+01  0.8846E+01
      6.669  0.3318E+01  0.9774E+01
      6.949  0.3262E+01  0.1069E+02
      7.229  0.3312E+01  0.1161E+02
      7.509  0.3900E+01  0.1271E+02
      7.789  0.3104E+01  0.1357E+02
      8.069  0.2348E+01  0.1423E+02
      8.348  0.2215E+01  0.1485E+02
      8.628  0.2649E+01  0.1559E+02
      8.908  0.2242E+01  0.1622E+02
      9.188  0.1661E+01  0.1669E+02
      9.468  0.3255E+01  0.1760E+02
      9.748  0.4162E+01  0.1876E+02
     10.028  0.4410E+01  0.2000E+02
     10.308  0.3671E+01  0.2102E+02
     10.587  0.6889E+00  0.2122E+02
     10.867  0.1413E+00  0.2126E+02
     11.147  0.2946E+00  0.2134E+02
     11.427  0.1076E+01  0.2164E+02
     11.707  0.6339E+00  0.2182E+02
     11.987  0.2524E+00  0.2189E+02
     12.267  0.5479E+00  0.2204E+02
     12.546  0.5293E+00  0.2219E+02
     12.826  0.2810E+00  0.2227E+02
     13.106  0.1624E+00  0.2231E+02
     13.386  0.6880E+00  0.2251E+02
     13.666  0.6371E+00  0.2268E+02
     13.946  0.4341E+00  0.2280E+02
     14.226  0.2018E+00  0.2286E+02
     14.506  0.3384E+00  0.2296E+02
     14.785  0.3193E+00  0.2305E+02
     15.065  0.4935E+00  0.2318E+02
     15.345  0.4050E+00  0.2330E+02
     15.625  0.1962E+00  0.2335E+02
     15.905  0.3112E+00  0.2344E+02
     16.185  0.2045E+00  0.2350E+02
     16.465  0.4304E+00  0.2362E+02
     16.745  0.5438E+00  0.2377E+02
     17.024  0.3056E+00  0.2385E+02
     17.304  0.8466E-01  0.2388E+02
     17.584  0.5568E-01  0.2389E+02
     17.864  0.1730E+00  0.2394E+02
     18.144  0.4586E-01  0.2395E+02
     18.424  0.9913E-01  0.2398E+02
     18.704  0.2322E+00  0.2405E+02
     18.984  0.2978E+00  0.2413E+02
     19.263  0.3799E+00  0.2424E+02
     19.543  0.3542E+00  0.2434E+02
     19.823  0.2600E+00  0.2441E+02
     20.103  0.7974E+00  0.2463E+02
     20.383  0.8732E+00  0.2488E+02
     20.663  0.7251E+00  0.2508E+02
     20.943  0.5922E+00  0.2525E+02
     21.223  0.3489E+00  0.2534E+02
     21.502  0.7200E+00  0.2554E+02
     21.782  0.5598E+00  0.2570E+02
     22.062  0.8954E+00  0.2595E+02
     22.342  0.6422E+00  0.2613E+02
     22.622  0.4867E+00  0.2627E+02
     22.902  0.6961E+00  0.2646E+02
     23.182  0.8158E+00  0.2669E+02
     23.462  0.6144E+00  0.2686E+02
     23.741  0.6336E+00  0.2704E+02
     24.021  0.6652E+00  0.2723E+02
     24.301  0.6622E+00  0.2741E+02
     24.581  0.5968E+00  0.2758E+02
     24.861  0.5088E+00  0.2772E+02
     25.141  0.3970E+00  0.2783E+02
     25.421  0.5786E+00  0.2799E+02
     25.700  0.5836E+00  0.2816E+02
     25.980  0.6974E+00  0.2835E+02
     26.260  0.6075E+00  0.2852E+02
     26.540  0.4846E+00  0.2866E+02
     26.820  0.9201E+00  0.2892E+02
     27.100  0.9523E+00  0.2918E+02
     27.380  0.6010E+00  0.2935E+02
     27.660  0.8871E+00  0.2960E+02
     27.939  0.7970E+00  0.2982E+02
     28.219  0.7201E+00  0.3002E+02
     28.499  0.7620E+00  0.3024E+02
     28.779  0.9723E+00  0.3051E+02
     29.059  0.7290E+00  0.3071E+02
     29.339  0.7337E+00  0.3092E+02
     29.619  0.1069E+01  0.3122E+02
     29.899  0.1044E+01  0.3151E+02
     30.178  0.6432E+00  0.3169E+02
     30.458  0.1059E+01  0.3199E+02
     30.738  0.6144E+00  0.3216E+02
     31.018  0.5701E+00  0.3232E+02
     31.298  0.1013E+01  0.3260E+02
     31.578  0.9206E+00  0.3286E+02
     31.858  0.9315E+00  0.3312E+02
     32.138  0.9082E+00  0.3337E+02
     32.417  0.7691E+00  0.3359E+02
     32.697  0.9838E+00  0.3386E+02
     32.977  0.8590E+00  0.3410E+02
     33.257  0.4952E+00  0.3424E+02
     33.537  0.3559E+00  0.3434E+02
     33.817  0.8281E+00  0.3457E+02
     34.097  0.9562E+00  0.3484E+02
     34.377  0.7129E+00  0.3504E+02
     34.656  0.7387E+00  0.3525E+02
     34.936  0.5508E+00  0.3540E+02
     35.216  0.7401E+00  0.3561E+02
     35.496  0.7573E+00  0.3582E+02
     35.776  0.5980E+00  0.3599E+02
     36.056  0.4239E+00  0.3611E+02
     36.336  0.5024E+00  0.3625E+02
     36.616  0.2962E+00  0.3633E+02
     36.895  0.8940E+00  0.3658E+02
     37.175  0.9326E+00  0.3684E+02
     37.455  0.6810E+00  0.3703E+02
     37.735  0.1198E+01  0.3737E+02
     38.015  0.9206E+00  0.3763E+02
     38.295  0.3939E+00  0.3774E+02
     38.575  0.8617E+00  0.3798E+02
     38.855  0.5264E+00  0.3812E+02
     39.134  0.1243E+01  0.3847E+02
     39.414  0.1032E+01  0.3876E+02
     39.694  0.6836E+00  0.3895E+02
     39.974  0.7649E+00  0.3917E+02
     40.254  0.6921E+00  0.3936E+02
     40.534  0.8017E+00  0.3958E+02
     40.814  0.7799E+00  0.3980E+02
     41.093  0.8823E+00  0.4005E+02
     41.373  0.5422E+00  0.4020E+02
     41.653  0.7624E+00  0.4042E+02
     41.933  0.1158E+01  0.4074E+02
     42.213  0.5981E+00  0.4091E+02
     42.493  0.7034E+00  0.4110E+02
     42.773  0.7183E+00  0.4130E+02
     43.053  0.7110E+00  0.4150E+02
     43.332  0.9719E+00  0.4178E+02
     43.612  0.8968E+00  0.4203E+02
     43.892  0.9636E+00  0.4230E+02
     44.172  0.8212E+00  0.4253E+02
     44.452  0.6439E+00  0.4271E+02
     44.732  0.8075E+00  0.4293E+02
     45.012  0.1076E+01  0.4323E+02
     45.292  0.9836E+00  0.4351E+02
     45.571  0.3925E+00  0.4362E+02
     45.851  0.7848E+00  0.4384E+02
     46.131  0.4940E+00  0.4398E+02
     46.411  0.8699E+00  0.4422E+02
     46.691  0.7024E+00  0.4442E+02
     46.971  0.7088E+00  0.4461E+02
     47.251  0.1042E+01  0.4491E+02
     47.531  0.1134E+01  0.4522E+02
     47.810  0.1334E+01  0.4560E+02
     48.090  0.1159E+01  0.4592E+02
     48.370  0.6812E+00  0.4611E+02
     48.650  0.8651E+00  0.4635E+02
     48.930  0.9928E+00  0.4663E+02
     49.210  0.1092E+01  0.4694E+02
     49.490  0.9680E+00  0.4721E+02
     49.770  0.9189E+00  0.4747E+02
     50.049  0.1214E+01  0.4781E+02
     50.329  0.9534E+00  0.4807E+02
     50.609  0.1111E+01  0.4838E+02
     50.889  0.9028E+00  0.4864E+02
     51.169  0.7401E+00  0.4884E+02
     51.449  0.5591E+00  0.4900E+02
     51.729  0.6871E+00  0.4919E+02
     52.009  0.9683E+00  0.4946E+02
     52.288  0.7477E+00  0.4967E+02
     52.568  0.4144E+00  0.4979E+02
     52.848  0.9763E+00  0.5006E+02
     53.128  0.7596E+00  0.5027E+02
     53.408  0.7320E+00  0.5048E+02
     53.688  0.1391E+01  0.5087E+02
     53.968  0.1016E+01  0.5115E+02
     54.248  0.9493E+00  0.5142E+02
     54.527  0.1182E+01  0.5175E+02
     54.807  0.1323E+01  0.5212E+02
     55.087  0.9121E+00  0.5237E+02
     55.367  0.6084E+00  0.5255E+02
     55.647  0.7819E+00  0.5276E+02
     55.927  0.9018E+00  0.5302E+02
     56.207  0.1134E+01  0.5333E+02
     56.486  0.1247E+01  0.5368E+02
     56.766  0.1084E+01  0.5399E+02
     57.046  0.1131E+01  0.5430E+02
     57.326  0.1048E+01  0.5460E+02
     57.606  0.1196E+01  0.5493E+02
     57.886  0.1340E+01  0.5531E+02
     58.166  0.1340E+01  0.5568E+02
     58.446  0.1013E+01  0.5596E+02
     58.725  0.1250E+01  0.5631E+02
     59.005  0.1280E+01  0.5667E+02
     59.285  0.8640E+00  0.5691E+02
     59.565  0.1144E+01  0.5723E+02
     59.845  0.1146E+01  0.5755E+02
     60.125  0.1424E+01  0.5795E+02
     60.405  0.1704E+01  0.5843E+02
     60.685  0.1309E+01  0.5880E+02
     60.964  0.1595E+01  0.5924E+02
     61.244  0.1259E+01  0.5960E+02
     61.524  0.1202E+01  0.5993E+02
     61.804  0.1977E+01  0.6049E+02
     62.084  0.1913E+01  0.6102E+02
     62.364  0.2043E+01  0.6159E+02
     62.644  0.2292E+01  0.6223E+02
     62.924  0.1894E+01  0.6276E+02
     63.203  0.1919E+01  0.6330E+02
     63.483  0.2493E+01  0.6400E+02
     63.763  0.2439E+01  0.6468E+02
     64.043  0.2610E+01  0.6541E+02
     64.323  0.2453E+01  0.6610E+02
     64.603  0.1988E+01  0.6665E+02
     64.883  0.1974E+01  0.6721E+02
     65.163  0.1391E+01  0.6760E+02
     65.442  0.1412E+01  0.6799E+02
     65.722  0.1754E+01  0.6848E+02
     66.002  0.1414E+01  0.6888E+02
     66.282  0.1293E+01  0.6924E+02
     66.562  0.1420E+01  0.6964E+02
     66.842  0.1322E+01  0.7001E+02
     67.122  0.1359E+01  0.7039E+02
     67.402  0.1219E+01  0.7073E+02
     67.681  0.1477E+01  0.7114E+02
     67.961  0.1231E+01  0.7149E+02
     68.241  0.1059E+01  0.7178E+02
     68.521  0.1026E+01  0.7207E+02
     68.801  0.1700E+01  0.7255E+02
     69.081  0.1293E+01  0.7291E+02
     69.361  0.1384E+01  0.7330E+02
     69.640  0.1583E+01  0.7374E+02
     69.920  0.1745E+01  0.7423E+02
     70.200  0.1515E+01  0.7465E+02
     70.480  0.8047E+00  0.7488E+02
     70.760  0.1091E+01  0.7518E+02
     71.040  0.1406E+01  0.7557E+02
     71.320  0.1433E+01  0.7598E+02
     71.600  0.1290E+01  0.7634E+02
     71.879  0.1368E+01  0.7672E+02
     72.159  0.1381E+01  0.7711E+02
     72.439  0.9115E+00  0.7736E+02
     72.719  0.7097E+00  0.7756E+02
     72.999  0.1595E+01  0.7801E+02
     73.279  0.1476E+01  0.7842E+02
     73.559  0.1138E+01  0.7874E+02
     73.839  0.1152E+01  0.7906E+02
     74.118  0.7820E+00  0.7928E+02
     74.398  0.8496E+00  0.7952E+02
     74.678  0.9092E+00  0.7977E+02
     74.958  0.5068E+00  0.7991E+02
     75.238  0.2149E+00  0.7997E+02
     75.518  0.9901E-01  0.8000E+02
     75.798 -0.3131E-02  0.8000E+02
     76.078 -0.2381E-03  0.8000E+02
     76.357 -0.8698E-07  0.8000E+02
     76.637 -0.5374E-12  0.8000E+02
     76.917  0.0000E+00  0.8000E+02
     77.197  0.0000E+00  0.8000E+02
     77.477  0.0000E+00  0.8000E+02
     77.757  0.0000E+00  0.8000E+02
     78.037  0.0000E+00  0.8000E+02
     78.317  0.0000E+00  0.8000E+02
     78.596  0.0000E+00  0.8000E+02
     78.876  0.0000E+00  0.8000E+02
     79.156  0.0000E+00  0.8000E+02
