<?xml version="1.0" encoding="ISO-8859-1"?>
<modeling>
 <generator>
  <i name="program" type="string">vasp </i>
  <i name="version" type="string">6.2.0  </i>
  <i name="subversion" type="string">18Jan21 (build Mar 17 2021 09:06:54) complex                          serial </i>
  <i name="platform" type="string">LinuxIFC </i>
  <i name="date" type="string">2021 09 09 </i>
  <i name="time" type="string">12:00:41 </i>
 </generator>
 <incar>
  <i type="string" name="PREC">normal</i>
  <i type="int" name="ICHARG">     1</i>
  <i type="int" name="IBRION">     1</i>
  <i name="EDIFF">      0.00000100</i>
  <i type="int" name="NSW">     0</i>
  <i type="int" name="ISIF">     2</i>
  <i name="ENCUT">    280.00000000</i>
  <i type="int" name="NBANDS">    40</i>
  <i type="int" name="ISMEAR">     1</i>
  <i name="SIGMA">      0.20000000</i>
  <i type="logical" name="LCHARG"> T  </i>
  <i type="int" name="KPAR">     1</i>
  <i type="int" name="NCORE">     1</i>
  <i type="string" name="GGA">PE</i>
 </incar>
 <primitive_cell>
  <structure name="primitive_cell" >
   <crystal>
    <varray name="basis" >
     <v>       2.28340000       0.00000000       0.00000000 </v>
     <v>      -1.14170000       1.97748241       0.00000000 </v>
     <v>       0.00000000       0.00000000       3.85728000 </v>
    </varray>
    <i name="volume">     17.41709780 </i>
    <varray name="rec_basis" >
     <v>       0.43794342       0.25284675       0.00000000 </v>
     <v>       0.00000000       0.50569350       0.00000000 </v>
     <v>       0.00000000       0.00000000       0.25925004 </v>
    </varray>
   </crystal>
   <varray name="positions" >
    <v>       0.00000000       0.00000000       0.00000000 </v>
    <v>       0.33333333       0.66666667       0.50000000 </v>
   </varray>
  </structure>
  <varray name="primitive_index" >
   <v type="int" >        1 </v>
   <v type="int" >        2 </v>
  </varray>
 </primitive_cell>
 <kpoints>
  <generation param="Monkhorst-Pack">
   <v type="int" name="divisions">      11       11       11 </v>
   <v name="usershift">      0.00000000       0.00000000       0.00000000 </v>
   <v name="genvec1">      0.09090909      -0.00000000       0.00000000 </v>
   <v name="genvec2">      0.00000000       0.09090909       0.00000000 </v>
   <v name="genvec3">      0.00000000       0.00000000       0.09090909 </v>
   <v name="shift">      0.00000000       0.00000000       0.00000000 </v>
  </generation>
  <varray name="kpointlist" >
   <v>       0.00000000       0.00000000       0.00000000 </v>
   <v>       0.09090909       0.00000000       0.00000000 </v>
   <v>       0.18181818       0.00000000       0.00000000 </v>
   <v>       0.27272727       0.00000000       0.00000000 </v>
   <v>       0.36363636       0.00000000       0.00000000 </v>
   <v>       0.45454545      -0.00000000       0.00000000 </v>
   <v>       0.09090909       0.09090909       0.00000000 </v>
   <v>       0.18181818       0.09090909       0.00000000 </v>
   <v>       0.27272727       0.09090909       0.00000000 </v>
   <v>       0.36363636       0.09090909       0.00000000 </v>
   <v>       0.45454545       0.09090909       0.00000000 </v>
   <v>       0.18181818       0.18181818       0.00000000 </v>
   <v>       0.27272727       0.18181818       0.00000000 </v>
   <v>       0.36363636       0.18181818       0.00000000 </v>
   <v>       0.27272727       0.27272727       0.00000000 </v>
   <v>       0.36363636       0.27272727       0.00000000 </v>
   <v>       0.00000000       0.00000000       0.09090909 </v>
   <v>       0.09090909       0.00000000       0.09090909 </v>
   <v>       0.18181818       0.00000000       0.09090909 </v>
   <v>       0.27272727       0.00000000       0.09090909 </v>
   <v>       0.36363636       0.00000000       0.09090909 </v>
   <v>       0.45454545      -0.00000000       0.09090909 </v>
   <v>       0.09090909       0.09090909       0.09090909 </v>
   <v>       0.18181818       0.09090909       0.09090909 </v>
   <v>       0.27272727       0.09090909       0.09090909 </v>
   <v>       0.36363636       0.09090909       0.09090909 </v>
   <v>       0.45454545       0.09090909       0.09090909 </v>
   <v>       0.18181818       0.18181818       0.09090909 </v>
   <v>       0.27272727       0.18181818       0.09090909 </v>
   <v>       0.36363636       0.18181818       0.09090909 </v>
   <v>       0.27272727       0.27272727       0.09090909 </v>
   <v>       0.36363636       0.27272727       0.09090909 </v>
   <v>       0.00000000       0.00000000       0.18181818 </v>
   <v>       0.09090909       0.00000000       0.18181818 </v>
   <v>       0.18181818       0.00000000       0.18181818 </v>
   <v>       0.27272727       0.00000000       0.18181818 </v>
   <v>       0.36363636       0.00000000       0.18181818 </v>
   <v>       0.45454545      -0.00000000       0.18181818 </v>
   <v>       0.09090909       0.09090909       0.18181818 </v>
   <v>       0.18181818       0.09090909       0.18181818 </v>
   <v>       0.27272727       0.09090909       0.18181818 </v>
   <v>       0.36363636       0.09090909       0.18181818 </v>
   <v>       0.45454545       0.09090909       0.18181818 </v>
   <v>       0.18181818       0.18181818       0.18181818 </v>
   <v>       0.27272727       0.18181818       0.18181818 </v>
   <v>       0.36363636       0.18181818       0.18181818 </v>
   <v>       0.27272727       0.27272727       0.18181818 </v>
   <v>       0.36363636       0.27272727       0.18181818 </v>
   <v>       0.00000000       0.00000000       0.27272727 </v>
   <v>       0.09090909       0.00000000       0.27272727 </v>
   <v>       0.18181818       0.00000000       0.27272727 </v>
   <v>       0.27272727       0.00000000       0.27272727 </v>
   <v>       0.36363636       0.00000000       0.27272727 </v>
   <v>       0.45454545      -0.00000000       0.27272727 </v>
   <v>       0.09090909       0.09090909       0.27272727 </v>
   <v>       0.18181818       0.09090909       0.27272727 </v>
   <v>       0.27272727       0.09090909       0.27272727 </v>
   <v>       0.36363636       0.09090909       0.27272727 </v>
   <v>       0.45454545       0.09090909       0.27272727 </v>
   <v>       0.18181818       0.18181818       0.27272727 </v>
   <v>       0.27272727       0.18181818       0.27272727 </v>
   <v>       0.36363636       0.18181818       0.27272727 </v>
   <v>       0.27272727       0.27272727       0.27272727 </v>
   <v>       0.36363636       0.27272727       0.27272727 </v>
   <v>       0.00000000       0.00000000       0.36363636 </v>
   <v>       0.09090909       0.00000000       0.36363636 </v>
   <v>       0.18181818       0.00000000       0.36363636 </v>
   <v>       0.27272727       0.00000000       0.36363636 </v>
   <v>       0.36363636       0.00000000       0.36363636 </v>
   <v>       0.45454545      -0.00000000       0.36363636 </v>
   <v>       0.09090909       0.09090909       0.36363636 </v>
   <v>       0.18181818       0.09090909       0.36363636 </v>
   <v>       0.27272727       0.09090909       0.36363636 </v>
   <v>       0.36363636       0.09090909       0.36363636 </v>
   <v>       0.45454545       0.09090909       0.36363636 </v>
   <v>       0.18181818       0.18181818       0.36363636 </v>
   <v>       0.27272727       0.18181818       0.36363636 </v>
   <v>       0.36363636       0.18181818       0.36363636 </v>
   <v>       0.27272727       0.27272727       0.36363636 </v>
   <v>       0.36363636       0.27272727       0.36363636 </v>
   <v>       0.00000000       0.00000000       0.45454545 </v>
   <v>       0.09090909       0.00000000       0.45454545 </v>
   <v>       0.18181818       0.00000000       0.45454545 </v>
   <v>       0.27272727       0.00000000       0.45454545 </v>
   <v>       0.36363636       0.00000000       0.45454545 </v>
   <v>       0.45454545      -0.00000000       0.45454545 </v>
   <v>       0.09090909       0.09090909       0.45454545 </v>
   <v>       0.18181818       0.09090909       0.45454545 </v>
   <v>       0.27272727       0.09090909       0.45454545 </v>
   <v>       0.36363636       0.09090909       0.45454545 </v>
   <v>       0.45454545       0.09090909       0.45454545 </v>
   <v>       0.18181818       0.18181818       0.45454545 </v>
   <v>       0.27272727       0.18181818       0.45454545 </v>
   <v>       0.36363636       0.18181818       0.45454545 </v>
   <v>       0.27272727       0.27272727       0.45454545 </v>
   <v>       0.36363636       0.27272727       0.45454545 </v>
  </varray>
  <varray name="weights" >
   <v>       0.00075131 </v>
   <v>       0.00450789 </v>
   <v>       0.00450789 </v>
   <v>       0.00450789 </v>
   <v>       0.00450789 </v>
   <v>       0.00450789 </v>
   <v>       0.00450789 </v>
   <v>       0.00901578 </v>
   <v>       0.00901578 </v>
   <v>       0.00901578 </v>
   <v>       0.00450789 </v>
   <v>       0.00450789 </v>
   <v>       0.00901578 </v>
   <v>       0.00901578 </v>
   <v>       0.00450789 </v>
   <v>       0.00450789 </v>
   <v>       0.00150263 </v>
   <v>       0.00901578 </v>
   <v>       0.00901578 </v>
   <v>       0.00901578 </v>
   <v>       0.00901578 </v>
   <v>       0.00901578 </v>
   <v>       0.00901578 </v>
   <v>       0.01803156 </v>
   <v>       0.01803156 </v>
   <v>       0.01803156 </v>
   <v>       0.00901578 </v>
   <v>       0.00901578 </v>
   <v>       0.01803156 </v>
   <v>       0.01803156 </v>
   <v>       0.00901578 </v>
   <v>       0.00901578 </v>
   <v>       0.00150263 </v>
   <v>       0.00901578 </v>
   <v>       0.00901578 </v>
   <v>       0.00901578 </v>
   <v>       0.00901578 </v>
   <v>       0.00901578 </v>
   <v>       0.00901578 </v>
   <v>       0.01803156 </v>
   <v>       0.01803156 </v>
   <v>       0.01803156 </v>
   <v>       0.00901578 </v>
   <v>       0.00901578 </v>
   <v>       0.01803156 </v>
   <v>       0.01803156 </v>
   <v>       0.00901578 </v>
   <v>       0.00901578 </v>
   <v>       0.00150263 </v>
   <v>       0.00901578 </v>
   <v>       0.00901578 </v>
   <v>       0.00901578 </v>
   <v>       0.00901578 </v>
   <v>       0.00901578 </v>
   <v>       0.00901578 </v>
   <v>       0.01803156 </v>
   <v>       0.01803156 </v>
   <v>       0.01803156 </v>
   <v>       0.00901578 </v>
   <v>       0.00901578 </v>
   <v>       0.01803156 </v>
   <v>       0.01803156 </v>
   <v>       0.00901578 </v>
   <v>       0.00901578 </v>
   <v>       0.00150263 </v>
   <v>       0.00901578 </v>
   <v>       0.00901578 </v>
   <v>       0.00901578 </v>
   <v>       0.00901578 </v>
   <v>       0.00901578 </v>
   <v>       0.00901578 </v>
   <v>       0.01803156 </v>
   <v>       0.01803156 </v>
   <v>       0.01803156 </v>
   <v>       0.00901578 </v>
   <v>       0.00901578 </v>
   <v>       0.01803156 </v>
   <v>       0.01803156 </v>
   <v>       0.00901578 </v>
   <v>       0.00901578 </v>
   <v>       0.00150263 </v>
   <v>       0.00901578 </v>
   <v>       0.00901578 </v>
   <v>       0.00901578 </v>
   <v>       0.00901578 </v>
   <v>       0.00901578 </v>
   <v>       0.00901578 </v>
   <v>       0.01803156 </v>
   <v>       0.01803156 </v>
   <v>       0.01803156 </v>
   <v>       0.00901578 </v>
   <v>       0.00901578 </v>
   <v>       0.01803156 </v>
   <v>       0.01803156 </v>
   <v>       0.00901578 </v>
   <v>       0.00901578 </v>
  </varray>
 </kpoints>
 <parameters>
  <separator name="general" >
   <i type="string" name="SYSTEM">unknown system</i>
   <i type="logical" name="LCOMPAT"> F  </i>
  </separator>
  <separator name="electronic" >
   <i type="string" name="PREC">normal</i>
   <i name="ENMAX">    280.00000000</i>
   <i name="ENAUG">    511.36800000</i>
   <i name="EDIFF">      0.00000100</i>
   <i type="int" name="IALGO">    38</i>
   <i type="int" name="IWAVPR">     0</i>
   <i type="int" name="NBANDS">    40</i>
   <i type="int" name="NBANDSLOW">    -1</i>
   <i type="int" name="NBANDSHIGH">    -1</i>
   <i name="NELECT">     16.00000000</i>
   <i type="int" name="TURBO">     0</i>
   <i type="int" name="IRESTART">     0</i>
   <i type="int" name="NREBOOT">     0</i>
   <i type="int" name="NMIN">     0</i>
   <i name="EREF">      0.00000000</i>
   <separator name="electronic smearing" >
    <i type="int" name="ISMEAR">     1</i>
    <i name="SIGMA">      0.20000000</i>
    <i name="KSPACING">      0.50000000</i>
    <i type="logical" name="KGAMMA"> T  </i>
    <i type="logical" name="KBLOWUP"> T  </i>
   </separator>
   <separator name="electronic projectors" >
    <i type="logical" name="LREAL"> F  </i>
    <v name="ROPT">      0.00000000</v>
    <i type="int" name="LMAXPAW">  -100</i>
    <i type="int" name="LMAXMIX">     2</i>
    <i type="logical" name="NLSPLINE"> F  </i>
   </separator>
   <separator name="electronic startup" >
    <i type="int" name="ISTART">     0</i>
    <i type="int" name="ICHARG">     1</i>
    <i type="int" name="INIWAV">     1</i>
   </separator>
   <separator name="electronic spin" >
    <i type="int" name="ISPIN">     1</i>
    <i type="logical" name="LNONCOLLINEAR"> F  </i>
    <v name="MAGMOM">      1.00000000      1.00000000</v>
    <i name="NUPDOWN">     -1.00000000</i>
    <i type="logical" name="LSORBIT"> F  </i>
    <v name="SAXIS">      0.00000000      0.00000000      1.00000000</v>
    <i type="logical" name="LSPIRAL"> F  </i>
    <v name="QSPIRAL">      0.00000000      0.00000000      0.00000000</v>
    <i type="logical" name="LZEROZ"> F  </i>
   </separator>
   <separator name="electronic exchange-correlation" >
    <i type="logical" name="LASPH"> F  </i>
    <i type="logical" name="LMETAGGA"> F  </i>
   </separator>
   <separator name="electronic convergence" >
    <i type="int" name="NELM">    60</i>
    <i type="int" name="NELMDL">    -5</i>
    <i type="int" name="NELMIN">     2</i>
    <i name="ENINI">    280.00000000</i>
    <separator name="electronic convergence detail" >
     <i type="logical" name="LDIAG"> T  </i>
     <i type="logical" name="LSUBROT"> F  </i>
     <i name="WEIMIN">      0.00000000</i>
     <i name="EBREAK">      0.00000001</i>
     <i name="DEPER">      0.30000000</i>
     <i type="int" name="NRMM">     4</i>
     <i name="TIME">      0.40000000</i>
    </separator>
   </separator>
   <separator name="electronic mixer" >
    <i name="AMIX">      0.40000000</i>
    <i name="BMIX">      1.00000000</i>
    <i name="AMIN">      0.10000000</i>
    <i name="AMIX_MAG">      1.60000000</i>
    <i name="BMIX_MAG">      1.00000000</i>
    <separator name="electronic mixer details" >
     <i type="int" name="IMIX">     4</i>
     <i type="logical" name="MIXFIRST"> F  </i>
     <i type="int" name="MAXMIX">   -45</i>
     <i name="WC">    100.00000000</i>
     <i type="int" name="INIMIX">     1</i>
     <i type="int" name="MIXPRE">     1</i>
     <i type="int" name="MREMOVE">     5</i>
    </separator>
   </separator>
   <separator name="electronic dipolcorrection" >
    <i type="logical" name="LDIPOL"> F  </i>
    <i type="logical" name="LMONO"> F  </i>
    <i type="int" name="IDIPOL">     0</i>
    <i name="EPSILON">      1.00000000</i>
    <v name="DIPOL">   -100.00000000   -100.00000000   -100.00000000</v>
    <i name="EFIELD">      0.00000000</i>
   </separator>
  </separator>
  <separator name="grids" >
   <i type="int" name="NGX">    10</i>
   <i type="int" name="NGY">    10</i>
   <i type="int" name="NGZ">    16</i>
   <i type="int" name="NGXF">    20</i>
   <i type="int" name="NGYF">    20</i>
   <i type="int" name="NGZF">    32</i>
   <i type="logical" name="ADDGRID"> F  </i>
  </separator>
  <separator name="ionic" >
   <i type="int" name="NSW">     0</i>
   <i type="int" name="IBRION">    -1</i>
   <i type="int" name="MDALGO">     0</i>
   <i type="int" name="ISIF">     2</i>
   <i name="PSTRESS">      0.00000000</i>
   <i name="EDIFFG">      0.00001000</i>
   <i type="int" name="NFREE">     0</i>
   <i name="POTIM">      0.50000000</i>
   <i name="SMASS">     -3.00000000</i>
   <i name="SCALEE">      1.00000000</i>
  </separator>
  <separator name="ionic md" >
   <i name="TEBEG">      0.00010000</i>
   <i name="TEEND">      0.00010000</i>
   <i type="int" name="NBLOCK">     1</i>
   <i type="int" name="KBLOCK">     1</i>
   <i type="int" name="NPACO">   256</i>
   <i name="APACO">     16.00000000</i>
  </separator>
  <separator name="symmetry" >
   <i type="int" name="ISYM">     2</i>
   <i name="SYMPREC">      0.00001000</i>
  </separator>
  <separator name="dos" >
   <i type="int" name="LORBIT">     0</i>
   <v name="RWIGS">     -1.00000000</v>
   <i type="int" name="NEDOS">   301</i>
   <i name="EMIN">     10.00000000</i>
   <i name="EMAX">    -10.00000000</i>
   <i name="EFERMI">      0.00000000</i>
  </separator>
  <separator name="writing" >
   <i type="int" name="NWRITE">     2</i>
   <i type="logical" name="LWAVE"> T  </i>
   <i type="logical" name="LDOWNSAMPLE"> F  </i>
   <i type="logical" name="LCHARG"> T  </i>
   <i type="logical" name="LPARD"> F  </i>
   <i type="logical" name="LVTOT"> F  </i>
   <i type="logical" name="LVHAR"> F  </i>
   <i type="logical" name="LELF"> F  </i>
   <i type="logical" name="LOPTICS"> F  </i>
   <v name="STM">      0.00000000      0.00000000      0.00000000      0.00000000      0.00000000      0.00000000      0.00000000</v>
  </separator>
  <separator name="performance" >
   <i type="int" name="NPAR">     1</i>
   <i type="int" name="NSIM">     4</i>
   <i type="int" name="NBLK">    -1</i>
   <i type="logical" name="LPLANE"> T  </i>
   <i type="logical" name="LSCALAPACK"> F  </i>
   <i type="logical" name="LSCAAWARE"> F  </i>
   <i type="logical" name="LSCALU"> F  </i>
   <i type="logical" name="LASYNC"> F  </i>
   <i type="logical" name="LORBITALREAL"> F  </i>
  </separator>
  <separator name="miscellaneous" >
   <i type="int" name="IDIOT">     3</i>
   <i type="int" name="PHON_NSTRUCT">    -1</i>
   <i type="logical" name="LMUSIC"> F  </i>
   <v name="POMASS">     55.84700000</v>
   <v name="DARWINR">      0.00000000</v>
   <v name="DARWINV">      1.00000000</v>
   <i type="logical" name="LCORR"> T  </i>
  </separator>
  <i type="logical" name="GGA_COMPAT"> T  </i>
  <i type="logical" name="LBERRY"> F  </i>
  <i type="int" name="ICORELEVEL">     0</i>
  <i type="logical" name="LDAU"> F  </i>
  <i type="int" name="I_CONSTRAINED_M">     0</i>
  <separator name="electronic exchange-correlation" >
   <i type="string" name="GGA">PE</i>
   <i type="int" name="VOSKOWN">     0</i>
   <i type="logical" name="LHFCALC"> F  </i>
   <i type="string" name="PRECFOCK"></i>
   <i type="logical" name="LSYMGRAD"> F  </i>
   <i type="logical" name="LHFONE"> F  </i>
   <i type="logical" name="LRHFCALC"> F  </i>
   <i type="logical" name="LTHOMAS"> F  </i>
   <i type="logical" name="LMODELHF"> F  </i>
   <i type="logical" name="LFOCKACE"> F  </i>
   <i name="ENCUT4O">     -1.00000000</i>
   <i type="int" name="EXXOEP">     0</i>
   <i type="int" name="FOURORBIT">     0</i>
   <i name="AEXX">      0.00000000</i>
   <i name="HFALPHA">      0.00000000</i>
   <i name="MCALPHA">      0.00000000</i>
   <i name="ALDAX">      1.00000000</i>
   <i name="AGGAX">      1.00000000</i>
   <i name="ALDAC">      1.00000000</i>
   <i name="AGGAC">      1.00000000</i>
   <i type="int" name="NKREDX">     1</i>
   <i type="int" name="NKREDY">     1</i>
   <i type="int" name="NKREDZ">     1</i>
   <i type="logical" name="SHIFTRED"> F  </i>
   <i type="logical" name="ODDONLY"> F  </i>
   <i type="logical" name="EVENONLY"> F  </i>
   <i type="int" name="LMAXFOCK">     0</i>
   <i type="int" name="NMAXFOCKAE">     0</i>
   <i type="logical" name="LFOCKAEDFT"> F  </i>
   <i name="HFSCREEN">      0.00000000</i>
   <i name="HFSCREENC">      0.00000000</i>
   <i type="int" name="NBANDSGWLOW">     0</i>
  </separator>
  <separator name="vdW DFT" >
   <i type="logical" name="LUSE_VDW"> F  </i>
   <i name="Zab_VDW">     -0.84910000</i>
   <i name="PARAM1">      0.12340000</i>
   <i name="PARAM2">      1.00000000</i>
   <i name="PARAM3">      0.00000000</i>
  </separator>
  <separator name="model GW" >
   <i type="int" name="MODEL_GW">     0</i>
   <i name="MODEL_EPS0">      5.22512934</i>
   <i name="MODEL_ALPHA">      1.00000000</i>
  </separator>
  <separator name="linear response parameters" >
   <i type="logical" name="LEPSILON"> F  </i>
   <i type="logical" name="LRPA"> F  </i>
   <i type="logical" name="LNABLA"> F  </i>
   <i type="logical" name="LVEL"> F  </i>
   <i type="int" name="KINTER">     0</i>
   <i name="CSHIFT">      0.10000000</i>
   <i name="OMEGAMAX">     -1.00000000</i>
   <i name="DEG_THRESHOLD">      0.00200000</i>
   <i name="RTIME">     -0.10000000</i>
   <i name="WPLASMAI">      0.00000000</i>
   <v name="DFIELD">      0.00000000      0.00000000      0.00000000</v>
   <v name="WPLASMA">      0.00000000      0.00000000      0.00000000      0.00000000      0.00000000      0.00000000      0.00000000      0.00000000      0.00000000</v>
  </separator>
  <separator name="orbital magnetization" >
   <i type="logical" name="NUCIND"> F  </i>
   <v name="MAGPOS">      0.00000000      0.00000000      0.00000000</v>
   <i type="logical" name="LNICSALL"> T  </i>
   <i type="logical" name="ORBITALMAG"> F  </i>
   <i type="logical" name="LMAGBLOCH"> F  </i>
   <i type="logical" name="LCHIMAG"> F  </i>
   <i type="logical" name="LGAUGE"> T  </i>
   <i type="int" name="MAGATOM">     0</i>
   <v name="MAGDIPOL">      0.00000000      0.00000000      0.00000000</v>
   <v name="AVECCONST">      0.00000000      0.00000000      0.00000000</v>
  </separator>
  <separator name="response functions" >
   <i type="logical" name="LFINITE_TEMPERATURE"> F  </i>
   <i type="logical" name="LADDER"> F  </i>
   <i type="logical" name="LRPAFORCE"> F  </i>
   <i type="logical" name="LFXC"> F  </i>
   <i type="logical" name="LHARTREE"> T  </i>
   <i type="int" name="IBSE">     0</i>
   <v type="int" name="KPOINT">    -1     0     0     0</v>
   <i type="logical" name="LTCTC"> F  </i>
   <i type="logical" name="LTCTE"> F  </i>
   <i type="logical" name="LTETE"> F  </i>
   <i type="logical" name="LTRIPLET"> F  </i>
   <i type="logical" name="LFXCEPS"> F  </i>
   <i type="logical" name="LFXHEG"> F  </i>
   <i type="int" name="NATURALO">     2</i>
   <i type="logical" name="LHOLEGF"> F  </i>
   <i type="logical" name="L2ORDER"> F  </i>
   <i type="logical" name="LDMP1"> F  </i>
   <i type="logical" name="LMP2LT"> F  </i>
   <i type="logical" name="LSMP2LT"> F  </i>
   <i type="logical" name="LGWLF"> F  </i>
   <i name="ENCUTGW">     -2.00000000</i>
   <i name="ENCUTGWSOFT">     -2.00000000</i>
   <i name="ENCUTLF">     -1.00000000</i>
   <i type="logical" name="LESF_SPLINES"> F  </i>
   <i type="int" name="LMAXMP2">    -1</i>
   <i name="SCISSOR">      0.00000000</i>
   <i type="int" name="NOMEGA">     0</i>
   <i type="int" name="NOMEGAR">     0</i>
   <i type="int" name="NBANDSGW">    -1</i>
   <i type="int" name="NBANDSO">    -1</i>
   <i type="int" name="NBANDSV">    -1</i>
   <i type="int" name="NELM">     1</i>
   <i type="int" name="NELMHF">     1</i>
   <i type="int" name="DIM">     3</i>
   <i type="int" name="IESPILON">     4</i>
   <i type="int" name="ANTIRES">     0</i>
   <i name="OMEGAMAX">    -30.00000000</i>
   <i name="OMEGAMIN">    -30.00000000</i>
   <i name="OMEGATL">   -200.00000000</i>
   <i type="int" name="OMEGAGRID">     0</i>
   <i name="CSHIFT">     -0.10000000</i>
   <i type="logical" name="LSELFENERGY"> F  </i>
   <i type="logical" name="LSPECTRAL"> F  </i>
   <i type="logical" name="LSPECTRALGW"> F  </i>
   <i type="logical" name="LSINGLES"> F  </i>
   <i type="logical" name="LFERMIGW"> F  </i>
   <i type="logical" name="ODDONLYGW"> F  </i>
   <i type="logical" name="EVENONLYGW"> F  </i>
   <i type="int" name="NKREDLFX">     1</i>
   <i type="int" name="NKREDLFY">     1</i>
   <i type="int" name="NKREDLFZ">     1</i>
   <i type="int" name="MAXMEM">  2800</i>
   <i type="int" name="TELESCOPE">     0</i>
   <i type="int" name="NTAUPAR">    -1</i>
   <i type="int" name="NOMEGAPAR">    -1</i>
   <i name="DAMP_NEWTON">      0.80000001</i>
   <i name="LAMBDA">      1.00000000</i>
  </separator>
  <separator name="External order field" >
   <i name="OFIELD_KAPPA">      0.00000000</i>
   <v name="OFIELD_K">      0.00000000      0.00000000      0.00000000</v>
   <i name="OFIELD_Q6_NEAR">      0.00000000</i>
   <i name="OFIELD_Q6_FAR">      0.00000000</i>
   <i name="OFIELD_A">      0.00000000</i>
  </separator>
 </parameters>
 <atominfo>
  <atoms>       2 </atoms>
  <types>       1 </types>
  <array name="atoms" >
   <dimension dim="1">ion</dimension>
   <field type="string">element</field>
   <field type="int">atomtype</field>
   <set>
    <rc><c>Fe</c><c>   1</c></rc>
    <rc><c>Fe</c><c>   1</c></rc>
   </set>
  </array>
  <array name="atomtypes" >
   <dimension dim="1">type</dimension>
   <field type="int">atomspertype</field>
   <field type="string">element</field>
   <field>mass</field>
   <field>valence</field>
   <field type="string">pseudopotential</field>
   <set>
    <rc><c>   2</c><c>Fe</c><c>     55.84700000</c><c>      8.00000000</c><c>  PAW_PBE Fe 06Sep2000                  </c></rc>
   </set>
  </array>
 </atominfo>
 <structure name="initialpos" >
  <crystal>
   <varray name="basis" >
    <v>       2.28340000       0.00000000       0.00000000 </v>
    <v>      -1.14170000       1.97748241       0.00000000 </v>
    <v>       0.00000000       0.00000000       3.85728000 </v>
   </varray>
   <i name="volume">     17.41709780 </i>
   <varray name="rec_basis" >
    <v>       0.43794342       0.25284675       0.00000000 </v>
    <v>       0.00000000       0.50569350       0.00000000 </v>
    <v>       0.00000000       0.00000000       0.25925004 </v>
   </varray>
  </crystal>
  <varray name="positions" >
   <v>       0.00000000       0.00000000       0.00000000 </v>
   <v>       0.33333333       0.66666667       0.50000000 </v>
  </varray>
 </structure>
 <calculation>
  <scstep>
   <time name="dav">    0.76    0.78</time>
   <time name="total">    0.77    0.79</time>
   <energy>
    <i name="alphaZ">    158.72627410 </i>
    <i name="ewald">  -1293.53183579 </i>
    <i name="hartreedc">   -183.97301724 </i>
    <i name="XCdc">      9.54084338 </i>
    <i name="pawpsdc">   1109.69170683 </i>
    <i name="pawaedc">  -1125.09647265 </i>
    <i name="eentropy">     -0.00313677 </i>
    <i name="bandstr">    195.30487549 </i>
    <i name="atom">   1188.57490811 </i>
    <i name="e_fr_energy">     59.23414545 </i>
    <i name="e_wo_entrp">     59.23728222 </i>
    <i name="e_0_energy">     59.23519104 </i>
   </energy>
  </scstep>
  <scstep>
   <time name="dav">    0.62    0.62</time>
   <time name="total">    0.63    0.63</time>
   <energy>
    <i name="e_fr_energy">    -14.55628898 </i>
    <i name="e_wo_entrp">    -14.55608605 </i>
    <i name="e_0_energy">    -14.55622133 </i>
   </energy>
  </scstep>
  <scstep>
   <time name="dav">    0.73    0.73</time>
   <time name="total">    0.74    0.74</time>
   <energy>
    <i name="e_fr_energy">    -18.45771015 </i>
    <i name="e_wo_entrp">    -18.45625820 </i>
    <i name="e_0_energy">    -18.45722617 </i>
   </energy>
  </scstep>
  <scstep>
   <time name="dav">    0.66    0.66</time>
   <time name="total">    0.67    0.67</time>
   <energy>
    <i name="e_fr_energy">    -18.47020238 </i>
    <i name="e_wo_entrp">    -18.46874763 </i>
    <i name="e_0_energy">    -18.46971746 </i>
   </energy>
  </scstep>
  <scstep>
   <time name="dav">    0.73    0.73</time>
   <time name="total">    0.76    0.76</time>
   <energy>
    <i name="e_fr_energy">    -18.47020939 </i>
    <i name="e_wo_entrp">    -18.46875462 </i>
    <i name="e_0_energy">    -18.46972447 </i>
   </energy>
  </scstep>
  <scstep>
   <time name="dav">    0.83    0.83</time>
   <time name="total">    0.86    0.86</time>
   <energy>
    <i name="e_fr_energy">    -15.86793254 </i>
    <i name="e_wo_entrp">    -15.86760361 </i>
    <i name="e_0_energy">    -15.86782290 </i>
   </energy>
  </scstep>
  <scstep>
   <time name="dav">    0.71    0.71</time>
   <time name="total">    0.74    0.74</time>
   <energy>
    <i name="e_fr_energy">    -15.75680414 </i>
    <i name="e_wo_entrp">    -15.75631914 </i>
    <i name="e_0_energy">    -15.75664247 </i>
   </energy>
  </scstep>
  <scstep>
   <time name="dav">    0.78    0.78</time>
   <time name="total">    0.81    0.81</time>
   <energy>
    <i name="e_fr_energy">    -15.71782591 </i>
    <i name="e_wo_entrp">    -15.71738362 </i>
    <i name="e_0_energy">    -15.71767848 </i>
   </energy>
  </scstep>
  <scstep>
   <time name="dav">    0.76    0.76</time>
   <time name="total">    0.79    0.79</time>
   <energy>
    <i name="e_fr_energy">    -15.71225924 </i>
    <i name="e_wo_entrp">    -15.71182808 </i>
    <i name="e_0_energy">    -15.71211552 </i>
   </energy>
  </scstep>
  <scstep>
   <time name="dav">    0.64    0.64</time>
   <time name="total">    0.67    0.67</time>
   <energy>
    <i name="e_fr_energy">    -15.71220565 </i>
    <i name="e_wo_entrp">    -15.71177121 </i>
    <i name="e_0_energy">    -15.71206084 </i>
   </energy>
  </scstep>
  <scstep>
   <time name="dav">    0.65    0.65</time>
   <time name="total">    0.68    0.68</time>
   <energy>
    <i name="e_fr_energy">    -15.71219052 </i>
    <i name="e_wo_entrp">    -15.71175611 </i>
    <i name="e_0_energy">    -15.71204572 </i>
   </energy>
  </scstep>
  <scstep>
   <time name="dav">    0.50    0.50</time>
   <time name="total">    0.51    0.51</time>
   <energy>
    <i name="alphaZ">    158.72627410 </i>
    <i name="ewald">  -1293.53183579 </i>
    <i name="hartreedc">   -150.80347532 </i>
    <i name="XCdc">      7.96933844 </i>
    <i name="pawpsdc">   1689.30745298 </i>
    <i name="pawaedc">  -1708.56731914 </i>
    <i name="eentropy">     -0.00043425 </i>
    <i name="bandstr">     92.61290077 </i>
    <i name="atom">   1188.57490811 </i>
    <i name="e_fr_energy">    -15.71219011 </i>
    <i name="e_wo_entrp">    -15.71175585 </i>
    <i name="e_0_energy">    -15.71204536 </i>
   </energy>
  </scstep>
  <structure>
   <crystal>
    <varray name="basis" >
     <v>       2.28340000       0.00000000       0.00000000 </v>
     <v>      -1.14170000       1.97748241       0.00000000 </v>
     <v>       0.00000000       0.00000000       3.85728000 </v>
    </varray>
    <i name="volume">     17.41709780 </i>
    <varray name="rec_basis" >
     <v>       0.43794342       0.25284675       0.00000000 </v>
     <v>       0.00000000       0.50569350       0.00000000 </v>
     <v>       0.00000000       0.00000000       0.25925004 </v>
    </varray>
   </crystal>
   <varray name="positions" >
    <v>       0.00000000       0.00000000       0.00000000 </v>
    <v>       0.33333333       0.66666667       0.50000000 </v>
   </varray>
  </structure>
  <varray name="forces" >
   <v>       0.00000000      -0.00000000       0.00000000 </v>
   <v>      -0.00000000       0.00000000      -0.00000000 </v>
  </varray>
  <varray name="stress" >
   <v>     784.64800497      -0.00000000       0.00000000 </v>
   <v>      -0.00000000     784.64800497      -0.00000000 </v>
   <v>      -0.00000000       0.00000000     333.91035958 </v>
  </varray>
  <energy>
   <i name="e_fr_energy">    -15.71219011 </i>
   <i name="e_wo_entrp">    -15.71175585 </i>
   <i name="e_0_energy">    -15.71204536 </i>
  </energy>
  <time name="totalsc">    8.92    8.94</time>
  <eigenvalues>
   <array>
    <dimension dim="1">band</dimension>
    <dimension dim="2">kpoint</dimension>
    <dimension dim="3">spin</dimension>
    <field>eigene</field>
    <field>occ</field>
    <set>
     <set comment="spin 1">
      <set comment="kpoint 1">
       <r>   -0.9892    1.0000 </r>
       <r>    2.9004    1.0000 </r>
       <r>    6.3968    1.0000 </r>
       <r>    6.8109    1.0000 </r>
       <r>    6.8110    1.0000 </r>
       <r>    7.2783    1.0000 </r>
       <r>    7.2783    1.0000 </r>
       <r>    8.1755    1.0001 </r>
       <r>    8.1755    1.0001 </r>
       <r>    8.5530    1.0354 </r>
       <r>    9.7376   -0.0000 </r>
       <r>    9.7376   -0.0000 </r>
       <r>   18.3620    0.0000 </r>
       <r>   32.9816    0.0000 </r>
       <r>   35.2366    0.0000 </r>
       <r>   36.6991    0.0000 </r>
       <r>   39.7032    0.0000 </r>
       <r>   39.7032    0.0000 </r>
       <r>   40.3788    0.0000 </r>
       <r>   40.3790    0.0000 </r>
       <r>   43.1307    0.0000 </r>
       <r>   43.1307    0.0000 </r>
       <r>   43.8831    0.0000 </r>
       <r>   44.3208    0.0000 </r>
       <r>   47.8881    0.0000 </r>
       <r>   47.8881    0.0000 </r>
       <r>   49.9470    0.0000 </r>
       <r>   52.2516    0.0000 </r>
       <r>   52.2520    0.0000 </r>
       <r>   54.1453    0.0000 </r>
       <r>   54.1455    0.0000 </r>
       <r>   58.1100    0.0000 </r>
       <r>   65.0412    0.0000 </r>
       <r>   65.7696    0.0000 </r>
       <r>   65.7705    0.0000 </r>
       <r>   66.1927    0.0000 </r>
       <r>   67.4214    0.0000 </r>
       <r>   69.7359    0.0000 </r>
       <r>   69.7371    0.0000 </r>
       <r>   73.6726    0.0000 </r>
      </set>
      <set comment="kpoint 2">
       <r>   -0.6245    1.0000 </r>
       <r>    3.1643    1.0000 </r>
       <r>    6.2473    1.0000 </r>
       <r>    6.8861    1.0000 </r>
       <r>    7.0417    1.0000 </r>
       <r>    7.1573    1.0000 </r>
       <r>    7.2764    1.0000 </r>
       <r>    7.4887    1.0000 </r>
       <r>    8.0304    1.0000 </r>
       <r>    8.0691    1.0000 </r>
       <r>    9.7936   -0.0000 </r>
       <r>   11.2466   -0.0000 </r>
       <r>   18.3746    0.0000 </r>
       <r>   32.0536    0.0000 </r>
       <r>   35.1816    0.0000 </r>
       <r>   35.4974    0.0000 </r>
       <r>   36.7065    0.0000 </r>
       <r>   38.8777    0.0000 </r>
       <r>   38.9970    0.0000 </r>
       <r>   42.7671    0.0000 </r>
       <r>   43.5468    0.0000 </r>
       <r>   43.6615    0.0000 </r>
       <r>   44.3182    0.0000 </r>
       <r>   45.0448    0.0000 </r>
       <r>   48.9336    0.0000 </r>
       <r>   48.9938    0.0000 </r>
       <r>   49.8203    0.0000 </r>
       <r>   50.0324    0.0000 </r>
       <r>   53.6004    0.0000 </r>
       <r>   55.9387    0.0000 </r>
       <r>   56.5618    0.0000 </r>
       <r>   59.4004    0.0000 </r>
       <r>   64.3154    0.0000 </r>
       <r>   64.8144    0.0000 </r>
       <r>   65.1787    0.0000 </r>
       <r>   66.4230    0.0000 </r>
       <r>   66.4981    0.0000 </r>
       <r>   70.1490    0.0000 </r>
       <r>   72.0266    0.0000 </r>
       <r>   73.7427    0.0000 </r>
      </set>
      <set comment="kpoint 3">
       <r>    0.3953    1.0000 </r>
       <r>    3.7689    1.0000 </r>
       <r>    5.8376    1.0000 </r>
       <r>    5.8675    1.0000 </r>
       <r>    6.7196    1.0000 </r>
       <r>    7.4500    1.0000 </r>
       <r>    7.6842    1.0000 </r>
       <r>    7.6875    1.0000 </r>
       <r>    7.7102    1.0000 </r>
       <r>    8.0682    1.0000 </r>
       <r>    9.8960   -0.0000 </r>
       <r>   13.4304   -0.0000 </r>
       <r>   18.4216    0.0000 </r>
       <r>   28.6127    0.0000 </r>
       <r>   33.6271    0.0000 </r>
       <r>   33.8936    0.0000 </r>
       <r>   34.5793    0.0000 </r>
       <r>   36.0597    0.0000 </r>
       <r>   39.9656    0.0000 </r>
       <r>   42.1472    0.0000 </r>
       <r>   42.4102    0.0000 </r>
       <r>   42.9778    0.0000 </r>
       <r>   45.0856    0.0000 </r>
       <r>   47.1375    0.0000 </r>
       <r>   49.0951    0.0000 </r>
       <r>   49.7141    0.0000 </r>
       <r>   51.4660    0.0000 </r>
       <r>   53.9574    0.0000 </r>
       <r>   57.0921    0.0000 </r>
       <r>   58.6117    0.0000 </r>
       <r>   59.3360    0.0000 </r>
       <r>   61.5643    0.0000 </r>
       <r>   62.6330    0.0000 </r>
       <r>   63.6796    0.0000 </r>
       <r>   64.0084    0.0000 </r>
       <r>   64.6692    0.0000 </r>
       <r>   67.5386    0.0000 </r>
       <r>   70.6556    0.0000 </r>
       <r>   73.3008    0.0000 </r>
       <r>   73.6914    0.0000 </r>
      </set>
      <set comment="kpoint 4">
       <r>    1.7971    1.0000 </r>
       <r>    4.0169    1.0000 </r>
       <r>    4.7567    1.0000 </r>
       <r>    5.7211    1.0000 </r>
       <r>    6.5657    1.0000 </r>
       <r>    7.2677    1.0000 </r>
       <r>    7.3045    1.0000 </r>
       <r>    8.3551    1.0041 </r>
       <r>    8.5973    1.0229 </r>
       <r>    8.8814    0.1642 </r>
       <r>    9.9719   -0.0000 </r>
       <r>   15.8039    0.0000 </r>
       <r>   18.5199    0.0000 </r>
       <r>   24.6267    0.0000 </r>
       <r>   30.8996    0.0000 </r>
       <r>   30.9531    0.0000 </r>
       <r>   32.5637    0.0000 </r>
       <r>   35.4942    0.0000 </r>
       <r>   38.8360    0.0000 </r>
       <r>   41.7321    0.0000 </r>
       <r>   42.7292    0.0000 </r>
       <r>   42.8727    0.0000 </r>
       <r>   43.2474    0.0000 </r>
       <r>   47.5272    0.0000 </r>
       <r>   52.3838    0.0000 </r>
       <r>   54.2429    0.0000 </r>
       <r>   55.0551    0.0000 </r>
       <r>   57.4135    0.0000 </r>
       <r>   58.6122    0.0000 </r>
       <r>   59.4616    0.0000 </r>
       <r>   61.0843    0.0000 </r>
       <r>   62.5066    0.0000 </r>
       <r>   62.6823    0.0000 </r>
       <r>   63.6228    0.0000 </r>
       <r>   63.9307    0.0000 </r>
       <r>   66.7689    0.0000 </r>
       <r>   67.0310    0.0000 </r>
       <r>   71.1608    0.0000 </r>
       <r>   73.4289    0.0000 </r>
       <r>   73.5735    0.0000 </r>
      </set>
      <set comment="kpoint 5">
       <r>    2.9360    1.0000 </r>
       <r>    3.7118    1.0000 </r>
       <r>    3.9965    1.0000 </r>
       <r>    6.0460    1.0000 </r>
       <r>    6.8807    1.0000 </r>
       <r>    6.9379    1.0000 </r>
       <r>    6.9881    1.0000 </r>
       <r>    9.5193   -0.0000 </r>
       <r>    9.7102   -0.0000 </r>
       <r>    9.7840   -0.0000 </r>
       <r>   10.0090   -0.0000 </r>
       <r>   17.9428    0.0000 </r>
       <r>   18.2757    0.0000 </r>
       <r>   21.9709    0.0000 </r>
       <r>   27.6206    0.0000 </r>
       <r>   28.8934    0.0000 </r>
       <r>   30.0419    0.0000 </r>
       <r>   34.4108    0.0000 </r>
       <r>   37.5001    0.0000 </r>
       <r>   40.7155    0.0000 </r>
       <r>   41.4569    0.0000 </r>
       <r>   43.8658    0.0000 </r>
       <r>   45.4817    0.0000 </r>
       <r>   47.9652    0.0000 </r>
       <r>   56.0723    0.0000 </r>
       <r>   56.2392    0.0000 </r>
       <r>   56.6011    0.0000 </r>
       <r>   59.4065    0.0000 </r>
       <r>   60.1725    0.0000 </r>
       <r>   60.6944    0.0000 </r>
       <r>   62.6595    0.0000 </r>
       <r>   63.2297    0.0000 </r>
       <r>   63.2839    0.0000 </r>
       <r>   64.4928    0.0000 </r>
       <r>   64.7229    0.0000 </r>
       <r>   66.7050    0.0000 </r>
       <r>   71.2546    0.0000 </r>
       <r>   71.5591    0.0000 </r>
       <r>   72.4531    0.0000 </r>
       <r>   72.6914    0.0000 </r>
      </set>
      <set comment="kpoint 6">
       <r>    3.2081    1.0000 </r>
       <r>    3.5664    1.0000 </r>
       <r>    3.6112    1.0000 </r>
       <r>    6.6596    1.0000 </r>
       <r>    6.6615    1.0000 </r>
       <r>    6.8135    1.0000 </r>
       <r>    7.2331    1.0000 </r>
       <r>   10.0214   -0.0000 </r>
       <r>   10.0912   -0.0000 </r>
       <r>   10.2779   -0.0000 </r>
       <r>   11.6871   -0.0000 </r>
       <r>   15.5848    0.0000 </r>
       <r>   20.5655    0.0000 </r>
       <r>   22.1650    0.0000 </r>
       <r>   24.9725    0.0000 </r>
       <r>   27.4947    0.0000 </r>
       <r>   27.7270    0.0000 </r>
       <r>   33.6967    0.0000 </r>
       <r>   37.0622    0.0000 </r>
       <r>   39.4895    0.0000 </r>
       <r>   41.3962    0.0000 </r>
       <r>   44.7127    0.0000 </r>
       <r>   47.6043    0.0000 </r>
       <r>   48.4427    0.0000 </r>
       <r>   52.9587    0.0000 </r>
       <r>   58.0663    0.0000 </r>
       <r>   58.3215    0.0000 </r>
       <r>   60.9245    0.0000 </r>
       <r>   62.2379    0.0000 </r>
       <r>   62.2729    0.0000 </r>
       <r>   63.4748    0.0000 </r>
       <r>   63.8162    0.0000 </r>
       <r>   64.3022    0.0000 </r>
       <r>   66.9574    0.0000 </r>
       <r>   67.0882    0.0000 </r>
       <r>   69.6266    0.0000 </r>
       <r>   69.7844    0.0000 </r>
       <r>   70.0981    0.0000 </r>
       <r>   72.2006    0.0000 </r>
       <r>   72.2414    0.0000 </r>
      </set>
      <set comment="kpoint 7">
       <r>    0.0713    1.0000 </r>
       <r>    3.6203    1.0000 </r>
       <r>    5.9074    1.0000 </r>
       <r>    6.2464    1.0000 </r>
       <r>    6.9166    1.0000 </r>
       <r>    7.1083    1.0000 </r>
       <r>    7.5107    1.0000 </r>
       <r>    7.5496    1.0000 </r>
       <r>    7.9445    1.0000 </r>
       <r>    8.0547    1.0000 </r>
       <r>    9.8384   -0.0000 </r>
       <r>   12.8310   -0.0000 </r>
       <r>   18.4098    0.0000 </r>
       <r>   30.2232    0.0000 </r>
       <r>   31.9628    0.0000 </r>
       <r>   35.7224    0.0000 </r>
       <r>   36.0543    0.0000 </r>
       <r>   37.4848    0.0000 </r>
       <r>   37.9613    0.0000 </r>
       <r>   40.9401    0.0000 </r>
       <r>   42.9480    0.0000 </r>
       <r>   46.0026    0.0000 </r>
       <r>   46.1614    0.0000 </r>
       <r>   47.0513    0.0000 </r>
       <r>   47.9541    0.0000 </r>
       <r>   48.2518    0.0000 </r>
       <r>   48.6422    0.0000 </r>
       <r>   54.1652    0.0000 </r>
       <r>   57.0318    0.0000 </r>
       <r>   57.7565    0.0000 </r>
       <r>   57.8968    0.0000 </r>
       <r>   61.0392    0.0000 </r>
       <r>   62.4667    0.0000 </r>
       <r>   64.3536    0.0000 </r>
       <r>   65.0021    0.0000 </r>
       <r>   65.4450    0.0000 </r>
       <r>   66.0990    0.0000 </r>
       <r>   71.0338    0.0000 </r>
       <r>   73.2162    0.0000 </r>
       <r>   73.5096    0.0000 </r>
      </set>
      <set comment="kpoint 8">
       <r>    1.3162    1.0000 </r>
       <r>    4.1767    1.0000 </r>
       <r>    5.1660    1.0000 </r>
       <r>    5.4728    1.0000 </r>
       <r>    6.6403    1.0000 </r>
       <r>    7.0703    1.0000 </r>
       <r>    7.6283    1.0000 </r>
       <r>    7.7687    1.0000 </r>
       <r>    8.3521    1.0039 </r>
       <r>    8.7952    0.4917 </r>
       <r>    9.8801   -0.0000 </r>
       <r>   14.9796    0.0000 </r>
       <r>   18.5381    0.0000 </r>
       <r>   26.6392    0.0000 </r>
       <r>   29.3927    0.0000 </r>
       <r>   32.6280    0.0000 </r>
       <r>   35.1204    0.0000 </r>
       <r>   35.5257    0.0000 </r>
       <r>   38.9099    0.0000 </r>
       <r>   40.5794    0.0000 </r>
       <r>   41.1978    0.0000 </r>
       <r>   45.7462    0.0000 </r>
       <r>   46.2894    0.0000 </r>
       <r>   46.8273    0.0000 </r>
       <r>   49.8586    0.0000 </r>
       <r>   50.7142    0.0000 </r>
       <r>   52.4061    0.0000 </r>
       <r>   57.9385    0.0000 </r>
       <r>   59.0691    0.0000 </r>
       <r>   60.2069    0.0000 </r>
       <r>   60.2802    0.0000 </r>
       <r>   62.0528    0.0000 </r>
       <r>   62.3139    0.0000 </r>
       <r>   63.7334    0.0000 </r>
       <r>   64.4731    0.0000 </r>
       <r>   64.6891    0.0000 </r>
       <r>   66.6563    0.0000 </r>
       <r>   71.6373    0.0000 </r>
       <r>   72.7305    0.0000 </r>
       <r>   73.1165    0.0000 </r>
      </set>
      <set comment="kpoint 9">
       <r>    2.6973    1.0000 </r>
       <r>    4.0725    1.0000 </r>
       <r>    4.3242    1.0000 </r>
       <r>    5.5680    1.0000 </r>
       <r>    6.7179    1.0000 </r>
       <r>    6.7402    1.0000 </r>
       <r>    7.3367    1.0000 </r>
       <r>    8.4989    1.0289 </r>
       <r>    9.2882   -0.0013 </r>
       <r>    9.9057   -0.0000 </r>
       <r>    9.9118   -0.0000 </r>
       <r>   17.3643    0.0000 </r>
       <r>   18.6448    0.0000 </r>
       <r>   23.0000    0.0000 </r>
       <r>   27.5203    0.0000 </r>
       <r>   29.3104    0.0000 </r>
       <r>   32.4506    0.0000 </r>
       <r>   33.8167    0.0000 </r>
       <r>   38.5646    0.0000 </r>
       <r>   39.7572    0.0000 </r>
       <r>   41.7325    0.0000 </r>
       <r>   45.8193    0.0000 </r>
       <r>   45.8977    0.0000 </r>
       <r>   48.1901    0.0000 </r>
       <r>   52.0994    0.0000 </r>
       <r>   54.6265    0.0000 </r>
       <r>   56.7640    0.0000 </r>
       <r>   58.1338    0.0000 </r>
       <r>   58.1449    0.0000 </r>
       <r>   61.4732    0.0000 </r>
       <r>   61.9180    0.0000 </r>
       <r>   63.2473    0.0000 </r>
       <r>   63.6761    0.0000 </r>
       <r>   64.4654    0.0000 </r>
       <r>   64.7196    0.0000 </r>
       <r>   66.1885    0.0000 </r>
       <r>   69.7297    0.0000 </r>
       <r>   71.2824    0.0000 </r>
       <r>   71.4163    0.0000 </r>
       <r>   73.7458    0.0000 </r>
      </set>
      <set comment="kpoint 10">
       <r>    3.4089    1.0000 </r>
       <r>    3.7757    1.0000 </r>
       <r>    3.8012    1.0000 </r>
       <r>    6.1140    1.0000 </r>
       <r>    6.5623    1.0000 </r>
       <r>    6.9212    1.0000 </r>
       <r>    7.1331    1.0000 </r>
       <r>    9.5185   -0.0000 </r>
       <r>    9.9133   -0.0000 </r>
       <r>    9.9612   -0.0000 </r>
       <r>   11.3364   -0.0000 </r>
       <r>   17.1591    0.0000 </r>
       <r>   19.8177    0.0000 </r>
       <r>   21.9226    0.0000 </r>
       <r>   26.0729    0.0000 </r>
       <r>   26.3402    0.0000 </r>
       <r>   29.2803    0.0000 </r>
       <r>   32.7980    0.0000 </r>
       <r>   37.5879    0.0000 </r>
       <r>   39.1420    0.0000 </r>
       <r>   42.4281    0.0000 </r>
       <r>   46.2997    0.0000 </r>
       <r>   47.5512    0.0000 </r>
       <r>   48.3399    0.0000 </r>
       <r>   54.8196    0.0000 </r>
       <r>   54.8953    0.0000 </r>
       <r>   57.7351    0.0000 </r>
       <r>   58.7821    0.0000 </r>
       <r>   60.7601    0.0000 </r>
       <r>   62.0646    0.0000 </r>
       <r>   62.2916    0.0000 </r>
       <r>   63.3881    0.0000 </r>
       <r>   63.9591    0.0000 </r>
       <r>   66.2936    0.0000 </r>
       <r>   68.0577    0.0000 </r>
       <r>   68.2425    0.0000 </r>
       <r>   68.7232    0.0000 </r>
       <r>   71.8253    0.0000 </r>
       <r>   73.0305    0.0000 </r>
       <r>   73.3225    0.0000 </r>
      </set>
      <set comment="kpoint 11">
       <r>    3.4085    1.0000 </r>
       <r>    3.6242    1.0000 </r>
       <r>    3.7694    1.0000 </r>
       <r>    6.5188    1.0000 </r>
       <r>    6.6056    1.0000 </r>
       <r>    6.6708    1.0000 </r>
       <r>    7.2916    1.0000 </r>
       <r>    9.9127   -0.0000 </r>
       <r>   10.0857   -0.0000 </r>
       <r>   10.0947   -0.0000 </r>
       <r>   12.7020   -0.0000 </r>
       <r>   15.2312    0.0000 </r>
       <r>   21.4654    0.0000 </r>
       <r>   22.6071    0.0000 </r>
       <r>   24.5200    0.0000 </r>
       <r>   25.3366    0.0000 </r>
       <r>   27.7116    0.0000 </r>
       <r>   32.4291    0.0000 </r>
       <r>   37.1636    0.0000 </r>
       <r>   38.9618    0.0000 </r>
       <r>   42.5434    0.0000 </r>
       <r>   47.0149    0.0000 </r>
       <r>   47.5762    0.0000 </r>
       <r>   49.4587    0.0000 </r>
       <r>   52.5976    0.0000 </r>
       <r>   57.0971    0.0000 </r>
       <r>   57.7724    0.0000 </r>
       <r>   60.2345    0.0000 </r>
       <r>   61.2977    0.0000 </r>
       <r>   61.6477    0.0000 </r>
       <r>   63.7990    0.0000 </r>
       <r>   63.8127    0.0000 </r>
       <r>   64.3815    0.0000 </r>
       <r>   65.2641    0.0000 </r>
       <r>   69.3378    0.0000 </r>
       <r>   70.1982    0.0000 </r>
       <r>   70.5482    0.0000 </r>
       <r>   70.7462    0.0000 </r>
       <r>   71.8296    0.0000 </r>
       <r>   73.7501    0.0000 </r>
      </set>
      <set comment="kpoint 12">
       <r>    2.6395    1.0000 </r>
       <r>    4.5143    1.0000 </r>
       <r>    4.6300    1.0000 </r>
       <r>    4.9336    1.0000 </r>
       <r>    6.5581    1.0000 </r>
       <r>    6.7269    1.0000 </r>
       <r>    7.5350    1.0000 </r>
       <r>    7.9306    1.0000 </r>
       <r>    9.2668   -0.0021 </r>
       <r>    9.8001   -0.0000 </r>
       <r>    9.9783   -0.0000 </r>
       <r>   17.0703    0.0000 </r>
       <r>   18.9041    0.0000 </r>
       <r>   24.4944    0.0000 </r>
       <r>   25.5573    0.0000 </r>
       <r>   30.6042    0.0000 </r>
       <r>   32.6833    0.0000 </r>
       <r>   34.8899    0.0000 </r>
       <r>   35.8085    0.0000 </r>
       <r>   41.5697    0.0000 </r>
       <r>   42.3832    0.0000 </r>
       <r>   46.7378    0.0000 </r>
       <r>   47.4067    0.0000 </r>
       <r>   49.2625    0.0000 </r>
       <r>   49.7983    0.0000 </r>
       <r>   51.9352    0.0000 </r>
       <r>   53.8089    0.0000 </r>
       <r>   59.2166    0.0000 </r>
       <r>   59.4787    0.0000 </r>
       <r>   60.9920    0.0000 </r>
       <r>   61.1284    0.0000 </r>
       <r>   63.2866    0.0000 </r>
       <r>   63.4591    0.0000 </r>
       <r>   65.0242    0.0000 </r>
       <r>   65.9942    0.0000 </r>
       <r>   66.7380    0.0000 </r>
       <r>   67.1753    0.0000 </r>
       <r>   70.9718    0.0000 </r>
       <r>   71.2903    0.0000 </r>
       <r>   74.3927    0.0000 </r>
      </set>
      <set comment="kpoint 13">
       <r>    3.8234    1.0000 </r>
       <r>    4.0457    1.0000 </r>
       <r>    4.3217    1.0000 </r>
       <r>    5.1909    1.0000 </r>
       <r>    6.3003    1.0000 </r>
       <r>    7.0540    1.0000 </r>
       <r>    7.0952    1.0000 </r>
       <r>    8.5731    1.0327 </r>
       <r>    9.7308   -0.0000 </r>
       <r>    9.9212   -0.0000 </r>
       <r>   11.4583   -0.0000 </r>
       <r>   18.9808    0.0000 </r>
       <r>   19.4573    0.0000 </r>
       <r>   21.8234    0.0000 </r>
       <r>   23.8118    0.0000 </r>
       <r>   28.1540    0.0000 </r>
       <r>   30.8668    0.0000 </r>
       <r>   31.4689    0.0000 </r>
       <r>   34.4568    0.0000 </r>
       <r>   42.8964    0.0000 </r>
       <r>   43.5498    0.0000 </r>
       <r>   47.3297    0.0000 </r>
       <r>   49.1266    0.0000 </r>
       <r>   49.8485    0.0000 </r>
       <r>   51.8235    0.0000 </r>
       <r>   53.3000    0.0000 </r>
       <r>   55.1531    0.0000 </r>
       <r>   57.3344    0.0000 </r>
       <r>   60.0711    0.0000 </r>
       <r>   61.2345    0.0000 </r>
       <r>   62.3002    0.0000 </r>
       <r>   63.0881    0.0000 </r>
       <r>   64.1099    0.0000 </r>
       <r>   65.8136    0.0000 </r>
       <r>   67.6503    0.0000 </r>
       <r>   68.2807    0.0000 </r>
       <r>   70.0686    0.0000 </r>
       <r>   71.5860    0.0000 </r>
       <r>   72.9275    0.0000 </r>
       <r>   73.9948    0.0000 </r>
      </set>
      <set comment="kpoint 14">
       <r>    3.8047    1.0000 </r>
       <r>    3.9896    1.0000 </r>
       <r>    4.2385    1.0000 </r>
       <r>    5.7987    1.0000 </r>
       <r>    6.3301    1.0000 </r>
       <r>    6.6481    1.0000 </r>
       <r>    7.3642    1.0000 </r>
       <r>    9.3647   -0.0002 </r>
       <r>    9.6901   -0.0000 </r>
       <r>   10.0053   -0.0000 </r>
       <r>   13.2328   -0.0000 </r>
       <r>   16.6857    0.0000 </r>
       <r>   21.8547    0.0000 </r>
       <r>   22.0687    0.0000 </r>
       <r>   23.2129    0.0000 </r>
       <r>   25.5523    0.0000 </r>
       <r>   28.5477    0.0000 </r>
       <r>   30.0948    0.0000 </r>
       <r>   33.7775    0.0000 </r>
       <r>   42.7690    0.0000 </r>
       <r>   45.0051    0.0000 </r>
       <r>   47.8445    0.0000 </r>
       <r>   49.6220    0.0000 </r>
       <r>   50.1789    0.0000 </r>
       <r>   53.8859    0.0000 </r>
       <r>   54.5627    0.0000 </r>
       <r>   56.2402    0.0000 </r>
       <r>   56.4058    0.0000 </r>
       <r>   60.0636    0.0000 </r>
       <r>   61.0329    0.0000 </r>
       <r>   61.8347    0.0000 </r>
       <r>   63.8660    0.0000 </r>
       <r>   64.1346    0.0000 </r>
       <r>   64.5216    0.0000 </r>
       <r>   68.6580    0.0000 </r>
       <r>   69.7279    0.0000 </r>
       <r>   71.5792    0.0000 </r>
       <r>   71.8653    0.0000 </r>
       <r>   73.4459    0.0000 </r>
       <r>   74.6665    0.0000 </r>
      </set>
      <set comment="kpoint 15">
       <r>    3.9300    1.0000 </r>
       <r>    4.4854    1.0000 </r>
       <r>    4.8278    1.0000 </r>
       <r>    4.9168    1.0000 </r>
       <r>    6.1395    1.0000 </r>
       <r>    6.6784    1.0000 </r>
       <r>    7.4241    1.0000 </r>
       <r>    8.8912    0.1355 </r>
       <r>    9.5773   -0.0000 </r>
       <r>    9.9824   -0.0000 </r>
       <r>   13.3815   -0.0000 </r>
       <r>   18.9359    0.0000 </r>
       <r>   19.3850    0.0000 </r>
       <r>   21.8902    0.0000 </r>
       <r>   23.2828    0.0000 </r>
       <r>   27.3222    0.0000 </r>
       <r>   27.9656    0.0000 </r>
       <r>   30.2283    0.0000 </r>
       <r>   31.2090    0.0000 </r>
       <r>   45.1090    0.0000 </r>
       <r>   46.2119    0.0000 </r>
       <r>   49.2576    0.0000 </r>
       <r>   50.3971    0.0000 </r>
       <r>   51.7473    0.0000 </r>
       <r>   51.9377    0.0000 </r>
       <r>   52.1100    0.0000 </r>
       <r>   54.9868    0.0000 </r>
       <r>   57.5778    0.0000 </r>
       <r>   57.9321    0.0000 </r>
       <r>   59.9266    0.0000 </r>
       <r>   61.5809    0.0000 </r>
       <r>   64.2021    0.0000 </r>
       <r>   64.3057    0.0000 </r>
       <r>   64.4282    0.0000 </r>
       <r>   68.6159    0.0000 </r>
       <r>   69.8395    0.0000 </r>
       <r>   69.9553    0.0000 </r>
       <r>   72.2914    0.0000 </r>
       <r>   74.3289    0.0000 </r>
       <r>   74.5403    0.0000 </r>
      </set>
      <set comment="kpoint 16">
       <r>    3.9068    1.0000 </r>
       <r>    4.6014    1.0000 </r>
       <r>    4.7047    1.0000 </r>
       <r>    5.2794    1.0000 </r>
       <r>    6.2206    1.0000 </r>
       <r>    6.3654    1.0000 </r>
       <r>    7.6057    1.0000 </r>
       <r>    9.3152   -0.0007 </r>
       <r>    9.5191   -0.0000 </r>
       <r>    9.6609   -0.0000 </r>
       <r>   15.2174    0.0000 </r>
       <r>   16.8110    0.0000 </r>
       <r>   19.0004    0.0000 </r>
       <r>   24.0168    0.0000 </r>
       <r>   24.2294    0.0000 </r>
       <r>   25.3950    0.0000 </r>
       <r>   27.3508    0.0000 </r>
       <r>   28.6363    0.0000 </r>
       <r>   30.5671    0.0000 </r>
       <r>   45.5660    0.0000 </r>
       <r>   48.2295    0.0000 </r>
       <r>   49.6713    0.0000 </r>
       <r>   50.5119    0.0000 </r>
       <r>   51.2874    0.0000 </r>
       <r>   52.8290    0.0000 </r>
       <r>   53.1413    0.0000 </r>
       <r>   55.8821    0.0000 </r>
       <r>   56.4692    0.0000 </r>
       <r>   56.7123    0.0000 </r>
       <r>   59.9803    0.0000 </r>
       <r>   61.1727    0.0000 </r>
       <r>   61.7135    0.0000 </r>
       <r>   64.5019    0.0000 </r>
       <r>   64.7880    0.0000 </r>
       <r>   68.7036    0.0000 </r>
       <r>   69.9912    0.0000 </r>
       <r>   72.7657    0.0000 </r>
       <r>   72.8834    0.0000 </r>
       <r>   72.9452    0.0000 </r>
       <r>   73.8652    0.0000 </r>
      </set>
      <set comment="kpoint 17">
       <r>   -0.8923    1.0000 </r>
       <r>    2.8914    1.0000 </r>
       <r>    6.3664    1.0000 </r>
       <r>    6.7909    1.0000 </r>
       <r>    6.7910    1.0000 </r>
       <r>    7.2516    1.0000 </r>
       <r>    7.2516    1.0000 </r>
       <r>    8.2426    1.0003 </r>
       <r>    8.2426    1.0003 </r>
       <r>    8.2812    1.0009 </r>
       <r>    9.7301   -0.0000 </r>
       <r>    9.7301   -0.0000 </r>
       <r>   18.7873    0.0000 </r>
       <r>   32.8158    0.0000 </r>
       <r>   34.9800    0.0000 </r>
       <r>   36.4818    0.0000 </r>
       <r>   39.7735    0.0000 </r>
       <r>   39.7736    0.0000 </r>
       <r>   40.4123    0.0000 </r>
       <r>   40.4124    0.0000 </r>
       <r>   43.0879    0.0000 </r>
       <r>   43.0879    0.0000 </r>
       <r>   44.1928    0.0000 </r>
       <r>   44.6504    0.0000 </r>
       <r>   47.6015    0.0000 </r>
       <r>   47.6015    0.0000 </r>
       <r>   50.3765    0.0000 </r>
       <r>   52.6619    0.0000 </r>
       <r>   52.6622    0.0000 </r>
       <r>   54.5746    0.0000 </r>
       <r>   54.5747    0.0000 </r>
       <r>   57.8898    0.0000 </r>
       <r>   64.7032    0.0000 </r>
       <r>   65.2695    0.0000 </r>
       <r>   65.7191    0.0000 </r>
       <r>   65.7197    0.0000 </r>
       <r>   69.1046    0.0000 </r>
       <r>   69.1446    0.0000 </r>
       <r>   69.1450    0.0000 </r>
       <r>   73.9467    0.0000 </r>
      </set>
      <set comment="kpoint 18">
       <r>   -0.5306    1.0000 </r>
       <r>    3.1604    1.0000 </r>
       <r>    6.2457    1.0000 </r>
       <r>    6.8122    1.0000 </r>
       <r>    6.9532    1.0000 </r>
       <r>    7.0132    1.0000 </r>
       <r>    7.3505    1.0000 </r>
       <r>    7.4550    1.0000 </r>
       <r>    8.1099    1.0000 </r>
       <r>    8.1306    1.0000 </r>
       <r>    9.7808   -0.0000 </r>
       <r>   11.0529   -0.0000 </r>
       <r>   18.8284    0.0000 </r>
       <r>   32.0128    0.0000 </r>
       <r>   34.8365    0.0000 </r>
       <r>   35.3742    0.0000 </r>
       <r>   36.7799    0.0000 </r>
       <r>   38.1190    0.0000 </r>
       <r>   39.7575    0.0000 </r>
       <r>   42.4674    0.0000 </r>
       <r>   43.3251    0.0000 </r>
       <r>   43.6591    0.0000 </r>
       <r>   44.3665    0.0000 </r>
       <r>   45.5495    0.0000 </r>
       <r>   48.5612    0.0000 </r>
       <r>   48.9389    0.0000 </r>
       <r>   50.3718    0.0000 </r>
       <r>   50.5557    0.0000 </r>
       <r>   53.5197    0.0000 </r>
       <r>   56.2439    0.0000 </r>
       <r>   56.8513    0.0000 </r>
       <r>   59.1844    0.0000 </r>
       <r>   63.1476    0.0000 </r>
       <r>   64.9633    0.0000 </r>
       <r>   65.0269    0.0000 </r>
       <r>   65.9287    0.0000 </r>
       <r>   67.9579    0.0000 </r>
       <r>   69.4845    0.0000 </r>
       <r>   70.9744    0.0000 </r>
       <r>   73.6608    0.0000 </r>
      </set>
      <set comment="kpoint 19">
       <r>    0.4780    1.0000 </r>
       <r>    3.7815    1.0000 </r>
       <r>    5.7491    1.0000 </r>
       <r>    5.8681    1.0000 </r>
       <r>    6.6746    1.0000 </r>
       <r>    7.3041    1.0000 </r>
       <r>    7.5300    1.0000 </r>
       <r>    7.8573    1.0000 </r>
       <r>    7.9094    1.0000 </r>
       <r>    8.0721    1.0000 </r>
       <r>    9.8732   -0.0000 </r>
       <r>   13.0405   -0.0000 </r>
       <r>   18.9974    0.0000 </r>
       <r>   28.6695    0.0000 </r>
       <r>   33.4140    0.0000 </r>
       <r>   33.7251    0.0000 </r>
       <r>   34.8505    0.0000 </r>
       <r>   35.6668    0.0000 </r>
       <r>   40.0533    0.0000 </r>
       <r>   41.6677    0.0000 </r>
       <r>   41.7293    0.0000 </r>
       <r>   43.6159    0.0000 </r>
       <r>   45.3610    0.0000 </r>
       <r>   47.8126    0.0000 </r>
       <r>   49.4113    0.0000 </r>
       <r>   49.7969    0.0000 </r>
       <r>   51.2726    0.0000 </r>
       <r>   54.0232    0.0000 </r>
       <r>   56.8206    0.0000 </r>
       <r>   58.8535    0.0000 </r>
       <r>   59.5281    0.0000 </r>
       <r>   60.9127    0.0000 </r>
       <r>   61.8738    0.0000 </r>
       <r>   63.4111    0.0000 </r>
       <r>   64.3904    0.0000 </r>
       <r>   65.5386    0.0000 </r>
       <r>   67.4666    0.0000 </r>
       <r>   70.1440    0.0000 </r>
       <r>   72.4310    0.0000 </r>
       <r>   73.2164    0.0000 </r>
      </set>
      <set comment="kpoint 20">
       <r>    1.8472    1.0000 </r>
       <r>    4.0415    1.0000 </r>
       <r>    4.7205    1.0000 </r>
       <r>    5.7334    1.0000 </r>
       <r>    6.4864    1.0000 </r>
       <r>    7.3162    1.0000 </r>
       <r>    7.3298    1.0000 </r>
       <r>    8.3919    1.0078 </r>
       <r>    8.6148    1.0101 </r>
       <r>    8.8547    0.2530 </r>
       <r>    9.9423   -0.0000 </r>
       <r>   15.0686    0.0000 </r>
       <r>   19.3856    0.0000 </r>
       <r>   24.6992    0.0000 </r>
       <r>   30.4298    0.0000 </r>
       <r>   31.0819    0.0000 </r>
       <r>   32.9063    0.0000 </r>
       <r>   35.3784    0.0000 </r>
       <r>   38.8309    0.0000 </r>
       <r>   40.6465    0.0000 </r>
       <r>   41.7149    0.0000 </r>
       <r>   43.8072    0.0000 </r>
       <r>   43.8820    0.0000 </r>
       <r>   48.5515    0.0000 </r>
       <r>   52.5316    0.0000 </r>
       <r>   54.1696    0.0000 </r>
       <r>   54.6542    0.0000 </r>
       <r>   55.9304    0.0000 </r>
       <r>   59.0117    0.0000 </r>
       <r>   60.2839    0.0000 </r>
       <r>   61.4800    0.0000 </r>
       <r>   62.2163    0.0000 </r>
       <r>   62.5651    0.0000 </r>
       <r>   63.0258    0.0000 </r>
       <r>   64.7080    0.0000 </r>
       <r>   66.4027    0.0000 </r>
       <r>   67.2623    0.0000 </r>
       <r>   70.7471    0.0000 </r>
       <r>   72.0721    0.0000 </r>
       <r>   74.0132    0.0000 </r>
      </set>
      <set comment="kpoint 21">
       <r>    2.8982    1.0000 </r>
       <r>    3.6791    1.0000 </r>
       <r>    4.1364    1.0000 </r>
       <r>    5.7956    1.0000 </r>
       <r>    6.9271    1.0000 </r>
       <r>    7.0334    1.0000 </r>
       <r>    7.1998    1.0000 </r>
       <r>    9.5284   -0.0000 </r>
       <r>    9.6426   -0.0000 </r>
       <r>    9.7359   -0.0000 </r>
       <r>   10.0010   -0.0000 </r>
       <r>   16.5672    0.0000 </r>
       <r>   19.5842    0.0000 </r>
       <r>   22.1572    0.0000 </r>
       <r>   27.2155    0.0000 </r>
       <r>   29.0413    0.0000 </r>
       <r>   30.4771    0.0000 </r>
       <r>   34.4051    0.0000 </r>
       <r>   37.5126    0.0000 </r>
       <r>   39.4278    0.0000 </r>
       <r>   42.7314    0.0000 </r>
       <r>   42.9070    0.0000 </r>
       <r>   45.3205    0.0000 </r>
       <r>   49.3174    0.0000 </r>
       <r>   54.4434    0.0000 </r>
       <r>   56.0459    0.0000 </r>
       <r>   57.9571    0.0000 </r>
       <r>   58.3926    0.0000 </r>
       <r>   60.0530    0.0000 </r>
       <r>   61.5249    0.0000 </r>
       <r>   62.6098    0.0000 </r>
       <r>   63.2614    0.0000 </r>
       <r>   63.4506    0.0000 </r>
       <r>   64.6387    0.0000 </r>
       <r>   64.8013    0.0000 </r>
       <r>   66.6846    0.0000 </r>
       <r>   70.9070    0.0000 </r>
       <r>   71.1637    0.0000 </r>
       <r>   71.7345    0.0000 </r>
       <r>   73.3267    0.0000 </r>
      </set>
      <set comment="kpoint 22">
       <r>    3.1557    1.0000 </r>
       <r>    3.3119    1.0000 </r>
       <r>    4.0062    1.0000 </r>
       <r>    5.9197    1.0000 </r>
       <r>    6.8645    1.0000 </r>
       <r>    7.2221    1.0000 </r>
       <r>    7.4938    1.0000 </r>
       <r>    9.9194   -0.0000 </r>
       <r>   10.1063   -0.0000 </r>
       <r>   10.2830   -0.0000 </r>
       <r>   11.5773   -0.0000 </r>
       <r>   15.3796    0.0000 </r>
       <r>   20.3762    0.0000 </r>
       <r>   22.1978    0.0000 </r>
       <r>   25.1329    0.0000 </r>
       <r>   27.8867    0.0000 </r>
       <r>   27.8987    0.0000 </r>
       <r>   33.7210    0.0000 </r>
       <r>   37.0588    0.0000 </r>
       <r>   38.5096    0.0000 </r>
       <r>   42.3350    0.0000 </r>
       <r>   44.4111    0.0000 </r>
       <r>   45.7365    0.0000 </r>
       <r>   50.4077    0.0000 </r>
       <r>   52.6669    0.0000 </r>
       <r>   57.7815    0.0000 </r>
       <r>   58.7120    0.0000 </r>
       <r>   60.7524    0.0000 </r>
       <r>   61.4772    0.0000 </r>
       <r>   62.4629    0.0000 </r>
       <r>   63.3634    0.0000 </r>
       <r>   63.7332    0.0000 </r>
       <r>   64.9206    0.0000 </r>
       <r>   66.2322    0.0000 </r>
       <r>   68.0138    0.0000 </r>
       <r>   69.0212    0.0000 </r>
       <r>   69.6529    0.0000 </r>
       <r>   71.2167    0.0000 </r>
       <r>   72.1529    0.0000 </r>
       <r>   72.3713    0.0000 </r>
      </set>
      <set comment="kpoint 23">
       <r>    0.1585    1.0000 </r>
       <r>    3.6280    1.0000 </r>
       <r>    5.9250    1.0000 </r>
       <r>    6.1004    1.0000 </r>
       <r>    6.9314    1.0000 </r>
       <r>    6.9710    1.0000 </r>
       <r>    7.4523    1.0000 </r>
       <r>    7.6770    1.0000 </r>
       <r>    7.9720    1.0000 </r>
       <r>    8.1327    1.0000 </r>
       <r>    9.8211   -0.0000 </r>
       <r>   12.5038   -0.0000 </r>
       <r>   18.9413    0.0000 </r>
       <r>   30.2558    0.0000 </r>
       <r>   32.0235    0.0000 </r>
       <r>   35.1763    0.0000 </r>
       <r>   35.5721    0.0000 </r>
       <r>   37.7745    0.0000 </r>
       <r>   38.4596    0.0000 </r>
       <r>   40.2121    0.0000 </r>
       <r>   43.0724    0.0000 </r>
       <r>   46.1295    0.0000 </r>
       <r>   46.4950    0.0000 </r>
       <r>   46.8643    0.0000 </r>
       <r>   47.1972    0.0000 </r>
       <r>   49.2309    0.0000 </r>
       <r>   49.3234    0.0000 </r>
       <r>   54.0317    0.0000 </r>
       <r>   56.7691    0.0000 </r>
       <r>   57.9273    0.0000 </r>
       <r>   58.3742    0.0000 </r>
       <r>   60.7716    0.0000 </r>
       <r>   61.3959    0.0000 </r>
       <r>   64.5957    0.0000 </r>
       <r>   65.0840    0.0000 </r>
       <r>   65.2377    0.0000 </r>
       <r>   66.7975    0.0000 </r>
       <r>   70.6008    0.0000 </r>
       <r>   72.0613    0.0000 </r>
       <r>   73.2063    0.0000 </r>
      </set>
      <set comment="kpoint 24">
       <r>    1.3839    1.0000 </r>
       <r>    4.2058    1.0000 </r>
       <r>    5.0827    1.0000 </r>
       <r>    5.5041    1.0000 </r>
       <r>    6.5915    1.0000 </r>
       <r>    7.0302    1.0000 </r>
       <r>    7.6435    1.0000 </r>
       <r>    7.7994    1.0000 </r>
       <r>    8.4325    1.0143 </r>
       <r>    8.7687    0.6030 </r>
       <r>    9.8622   -0.0000 </r>
       <r>   14.4010    0.0000 </r>
       <r>   19.2688    0.0000 </r>
       <r>   26.7105    0.0000 </r>
       <r>   29.4664    0.0000 </r>
       <r>   32.2703    0.0000 </r>
       <r>   34.6691    0.0000 </r>
       <r>   35.9932    0.0000 </r>
       <r>   39.2982    0.0000 </r>
       <r>   39.4768    0.0000 </r>
       <r>   41.5049    0.0000 </r>
       <r>   45.0627    0.0000 </r>
       <r>   46.9956    0.0000 </r>
       <r>   47.5896    0.0000 </r>
       <r>   49.9545    0.0000 </r>
       <r>   50.6777    0.0000 </r>
       <r>   52.6758    0.0000 </r>
       <r>   57.2616    0.0000 </r>
       <r>   58.6618    0.0000 </r>
       <r>   60.4822    0.0000 </r>
       <r>   60.7239    0.0000 </r>
       <r>   61.6927    0.0000 </r>
       <r>   61.9419    0.0000 </r>
       <r>   63.7739    0.0000 </r>
       <r>   64.5487    0.0000 </r>
       <r>   65.1555    0.0000 </r>
       <r>   66.7046    0.0000 </r>
       <r>   71.3396    0.0000 </r>
       <r>   72.6399    0.0000 </r>
       <r>   73.0321    0.0000 </r>
      </set>
      <set comment="kpoint 25">
       <r>    2.7092    1.0000 </r>
       <r>    4.0925    1.0000 </r>
       <r>    4.3359    1.0000 </r>
       <r>    5.5492    1.0000 </r>
       <r>    6.5616    1.0000 </r>
       <r>    6.9612    1.0000 </r>
       <r>    7.3320    1.0000 </r>
       <r>    8.5070    1.0306 </r>
       <r>    9.3224   -0.0006 </r>
       <r>    9.6993   -0.0000 </r>
       <r>   10.0470   -0.0000 </r>
       <r>   16.2652    0.0000 </r>
       <r>   19.8273    0.0000 </r>
       <r>   23.0923    0.0000 </r>
       <r>   27.5929    0.0000 </r>
       <r>   28.9711    0.0000 </r>
       <r>   32.7599    0.0000 </r>
       <r>   33.6909    0.0000 </r>
       <r>   38.8299    0.0000 </r>
       <r>   39.6135    0.0000 </r>
       <r>   41.0085    0.0000 </r>
       <r>   44.8354    0.0000 </r>
       <r>   47.0060    0.0000 </r>
       <r>   49.1514    0.0000 </r>
       <r>   52.0522    0.0000 </r>
       <r>   53.8070    0.0000 </r>
       <r>   56.3864    0.0000 </r>
       <r>   57.7471    0.0000 </r>
       <r>   59.5080    0.0000 </r>
       <r>   60.7323    0.0000 </r>
       <r>   62.5673    0.0000 </r>
       <r>   62.9457    0.0000 </r>
       <r>   63.6659    0.0000 </r>
       <r>   64.1904    0.0000 </r>
       <r>   65.2521    0.0000 </r>
       <r>   66.2337    0.0000 </r>
       <r>   69.5473    0.0000 </r>
       <r>   70.9575    0.0000 </r>
       <r>   72.0877    0.0000 </r>
       <r>   72.9408    0.0000 </r>
      </set>
      <set comment="kpoint 26">
       <r>    3.3018    1.0000 </r>
       <r>    3.6450    1.0000 </r>
       <r>    4.1224    1.0000 </r>
       <r>    5.7496    1.0000 </r>
       <r>    6.7315    1.0000 </r>
       <r>    7.1213    1.0000 </r>
       <r>    7.2025    1.0000 </r>
       <r>    9.4974   -0.0000 </r>
       <r>    9.8251   -0.0000 </r>
       <r>    9.9840   -0.0000 </r>
       <r>   11.3161   -0.0000 </r>
       <r>   16.6778    0.0000 </r>
       <r>   19.9298    0.0000 </r>
       <r>   22.3044    0.0000 </r>
       <r>   25.8134    0.0000 </r>
       <r>   26.4897    0.0000 </r>
       <r>   29.7212    0.0000 </r>
       <r>   32.6127    0.0000 </r>
       <r>   37.7542    0.0000 </r>
       <r>   39.1232    0.0000 </r>
       <r>   41.9570    0.0000 </r>
       <r>   45.1638    0.0000 </r>
       <r>   47.5733    0.0000 </r>
       <r>   49.9779    0.0000 </r>
       <r>   53.5555    0.0000 </r>
       <r>   55.3518    0.0000 </r>
       <r>   57.3143    0.0000 </r>
       <r>   59.6406    0.0000 </r>
       <r>   61.0857    0.0000 </r>
       <r>   62.0085    0.0000 </r>
       <r>   62.1947    0.0000 </r>
       <r>   63.3643    0.0000 </r>
       <r>   63.9254    0.0000 </r>
       <r>   66.0911    0.0000 </r>
       <r>   67.7566    0.0000 </r>
       <r>   68.7122    0.0000 </r>
       <r>   69.0988    0.0000 </r>
       <r>   71.5403    0.0000 </r>
       <r>   72.1014    0.0000 </r>
       <r>   74.2401    0.0000 </r>
      </set>
      <set comment="kpoint 27">
       <r>    3.3401    1.0000 </r>
       <r>    3.4349    1.0000 </r>
       <r>    4.1273    1.0000 </r>
       <r>    5.8713    1.0000 </r>
       <r>    6.6557    1.0000 </r>
       <r>    7.2852    1.0000 </r>
       <r>    7.3508    1.0000 </r>
       <r>    9.8163   -0.0000 </r>
       <r>   10.0803   -0.0000 </r>
       <r>   10.1089   -0.0000 </r>
       <r>   12.6254   -0.0000 </r>
       <r>   15.1369    0.0000 </r>
       <r>   21.2696    0.0000 </r>
       <r>   22.0990    0.0000 </r>
       <r>   25.2038    0.0000 </r>
       <r>   25.5389    0.0000 </r>
       <r>   28.0282    0.0000 </r>
       <r>   32.2468    0.0000 </r>
       <r>   37.3014    0.0000 </r>
       <r>   38.9568    0.0000 </r>
       <r>   42.3096    0.0000 </r>
       <r>   45.6358    0.0000 </r>
       <r>   47.3043    0.0000 </r>
       <r>   51.5158    0.0000 </r>
       <r>   52.0817    0.0000 </r>
       <r>   56.2425    0.0000 </r>
       <r>   58.3224    0.0000 </r>
       <r>   60.3230    0.0000 </r>
       <r>   61.6627    0.0000 </r>
       <r>   61.7516    0.0000 </r>
       <r>   63.5678    0.0000 </r>
       <r>   63.6738    0.0000 </r>
       <r>   64.6910    0.0000 </r>
       <r>   65.5150    0.0000 </r>
       <r>   68.5306    0.0000 </r>
       <r>   69.9528    0.0000 </r>
       <r>   70.4407    0.0000 </r>
       <r>   71.1501    0.0000 </r>
       <r>   72.3982    0.0000 </r>
       <r>   73.7033    0.0000 </r>
      </set>
      <set comment="kpoint 28">
       <r>    2.6740    1.0000 </r>
       <r>    4.4413    1.0000 </r>
       <r>    4.7076    1.0000 </r>
       <r>    4.9592    1.0000 </r>
       <r>    6.5490    1.0000 </r>
       <r>    6.7225    1.0000 </r>
       <r>    7.4871    1.0000 </r>
       <r>    7.9890    1.0000 </r>
       <r>    9.3205   -0.0006 </r>
       <r>    9.6281   -0.0000 </r>
       <r>   10.0895   -0.0000 </r>
       <r>   16.1319    0.0000 </r>
       <r>   19.9620    0.0000 </r>
       <r>   24.5758    0.0000 </r>
       <r>   25.6538    0.0000 </r>
       <r>   30.2888    0.0000 </r>
       <r>   32.2375    0.0000 </r>
       <r>   35.3448    0.0000 </r>
       <r>   36.2566    0.0000 </r>
       <r>   40.4491    0.0000 </r>
       <r>   42.6791    0.0000 </r>
       <r>   46.6675    0.0000 </r>
       <r>   48.0222    0.0000 </r>
       <r>   49.1443    0.0000 </r>
       <r>   49.4645    0.0000 </r>
       <r>   52.6875    0.0000 </r>
       <r>   53.8020    0.0000 </r>
       <r>   58.3714    0.0000 </r>
       <r>   59.4588    0.0000 </r>
       <r>   60.6711    0.0000 </r>
       <r>   62.3794    0.0000 </r>
       <r>   63.2200    0.0000 </r>
       <r>   63.3742    0.0000 </r>
       <r>   64.8761    0.0000 </r>
       <r>   65.2114    0.0000 </r>
       <r>   67.2462    0.0000 </r>
       <r>   67.5135    0.0000 </r>
       <r>   71.4599    0.0000 </r>
       <r>   71.4908    0.0000 </r>
       <r>   73.6601    0.0000 </r>
      </set>
      <set comment="kpoint 29">
       <r>    3.7297    1.0000 </r>
       <r>    4.1235    1.0000 </r>
       <r>    4.3607    1.0000 </r>
       <r>    5.1894    1.0000 </r>
       <r>    6.3561    1.0000 </r>
       <r>    6.9771    1.0000 </r>
       <r>    7.1565    1.0000 </r>
       <r>    8.5938    1.0249 </r>
       <r>    9.6277   -0.0000 </r>
       <r>    9.9631   -0.0000 </r>
       <r>   11.4890   -0.0000 </r>
       <r>   17.7185    0.0000 </r>
       <r>   20.5566    0.0000 </r>
       <r>   22.1324    0.0000 </r>
       <r>   23.9113    0.0000 </r>
       <r>   27.7904    0.0000 </r>
       <r>   30.4343    0.0000 </r>
       <r>   32.0103    0.0000 </r>
       <r>   34.9633    0.0000 </r>
       <r>   41.9594    0.0000 </r>
       <r>   43.5115    0.0000 </r>
       <r>   47.1537    0.0000 </r>
       <r>   49.2671    0.0000 </r>
       <r>   50.1850    0.0000 </r>
       <r>   51.8217    0.0000 </r>
       <r>   52.7674    0.0000 </r>
       <r>   55.8974    0.0000 </r>
       <r>   57.4640    0.0000 </r>
       <r>   59.6692    0.0000 </r>
       <r>   61.8671    0.0000 </r>
       <r>   62.4030    0.0000 </r>
       <r>   63.0950    0.0000 </r>
       <r>   64.0568    0.0000 </r>
       <r>   65.7869    0.0000 </r>
       <r>   67.5115    0.0000 </r>
       <r>   68.5666    0.0000 </r>
       <r>   69.8280    0.0000 </r>
       <r>   71.7949    0.0000 </r>
       <r>   73.0897    0.0000 </r>
       <r>   74.0040    0.0000 </r>
      </set>
      <set comment="kpoint 30">
       <r>    3.6804    1.0000 </r>
       <r>    4.0262    1.0000 </r>
       <r>    4.4267    1.0000 </r>
       <r>    5.5640    1.0000 </r>
       <r>    6.3729    1.0000 </r>
       <r>    6.7631    1.0000 </r>
       <r>    7.4279    1.0000 </r>
       <r>    9.3669   -0.0002 </r>
       <r>    9.5872   -0.0000 </r>
       <r>   10.0323   -0.0000 </r>
       <r>   13.2566   -0.0000 </r>
       <r>   16.5865    0.0000 </r>
       <r>   21.1352    0.0000 </r>
       <r>   22.6446    0.0000 </r>
       <r>   23.1578    0.0000 </r>
       <r>   25.7815    0.0000 </r>
       <r>   29.0159    0.0000 </r>
       <r>   29.7012    0.0000 </r>
       <r>   34.3095    0.0000 </r>
       <r>   42.5667    0.0000 </r>
       <r>   44.3034    0.0000 </r>
       <r>   46.5123    0.0000 </r>
       <r>   50.3208    0.0000 </r>
       <r>   51.0771    0.0000 </r>
       <r>   53.4347    0.0000 </r>
       <r>   54.2591    0.0000 </r>
       <r>   55.8906    0.0000 </r>
       <r>   57.8700    0.0000 </r>
       <r>   60.3886    0.0000 </r>
       <r>   60.8375    0.0000 </r>
       <r>   62.1230    0.0000 </r>
       <r>   63.6973    0.0000 </r>
       <r>   64.0385    0.0000 </r>
       <r>   64.9036    0.0000 </r>
       <r>   68.6589    0.0000 </r>
       <r>   69.6327    0.0000 </r>
       <r>   71.3967    0.0000 </r>
       <r>   71.9455    0.0000 </r>
       <r>   72.9748    0.0000 </r>
       <r>   74.6393    0.0000 </r>
      </set>
      <set comment="kpoint 31">
       <r>    3.9302    1.0000 </r>
       <r>    4.5041    1.0000 </r>
       <r>    4.8456    1.0000 </r>
       <r>    4.8898    1.0000 </r>
       <r>    6.2249    1.0000 </r>
       <r>    6.6040    1.0000 </r>
       <r>    7.4340    1.0000 </r>
       <r>    8.9218    0.0618 </r>
       <r>    9.4702   -0.0000 </r>
       <r>   10.0160   -0.0000 </r>
       <r>   13.4368   -0.0000 </r>
       <r>   18.6100    0.0000 </r>
       <r>   19.4748    0.0000 </r>
       <r>   21.6943    0.0000 </r>
       <r>   23.8103    0.0000 </r>
       <r>   27.0610    0.0000 </r>
       <r>   27.4921    0.0000 </r>
       <r>   30.8206    0.0000 </r>
       <r>   31.8052    0.0000 </r>
       <r>   43.8794    0.0000 </r>
       <r>   46.4142    0.0000 </r>
       <r>   48.8955    0.0000 </r>
       <r>   49.3833    0.0000 </r>
       <r>   51.1352    0.0000 </r>
       <r>   52.2615    0.0000 </r>
       <r>   53.8287    0.0000 </r>
       <r>   55.6970    0.0000 </r>
       <r>   57.4734    0.0000 </r>
       <r>   58.0293    0.0000 </r>
       <r>   60.0576    0.0000 </r>
       <r>   61.9073    0.0000 </r>
       <r>   63.8755    0.0000 </r>
       <r>   64.2921    0.0000 </r>
       <r>   64.8557    0.0000 </r>
       <r>   68.6480    0.0000 </r>
       <r>   69.8095    0.0000 </r>
       <r>   69.8365    0.0000 </r>
       <r>   72.5152    0.0000 </r>
       <r>   74.3189    0.0000 </r>
       <r>   74.4913    0.0000 </r>
      </set>
      <set comment="kpoint 32">
       <r>    3.9233    1.0000 </r>
       <r>    4.6292    1.0000 </r>
       <r>    4.7359    1.0000 </r>
       <r>    5.2204    1.0000 </r>
       <r>    6.2064    1.0000 </r>
       <r>    6.3764    1.0000 </r>
       <r>    7.6120    1.0000 </r>
       <r>    9.3413   -0.0004 </r>
       <r>    9.4060   -0.0001 </r>
       <r>    9.6923   -0.0000 </r>
       <r>   15.3149    0.0000 </r>
       <r>   16.8035    0.0000 </r>
       <r>   19.0195    0.0000 </r>
       <r>   23.4310    0.0000 </r>
       <r>   23.7478    0.0000 </r>
       <r>   26.0555    0.0000 </r>
       <r>   27.1666    0.0000 </r>
       <r>   29.1254    0.0000 </r>
       <r>   31.1723    0.0000 </r>
       <r>   44.7762    0.0000 </r>
       <r>   47.1345    0.0000 </r>
       <r>   48.8346    0.0000 </r>
       <r>   49.9787    0.0000 </r>
       <r>   52.1001    0.0000 </r>
       <r>   53.3234    0.0000 </r>
       <r>   54.3222    0.0000 </r>
       <r>   55.9651    0.0000 </r>
       <r>   56.4610    0.0000 </r>
       <r>   57.4797    0.0000 </r>
       <r>   59.7646    0.0000 </r>
       <r>   61.0578    0.0000 </r>
       <r>   62.0362    0.0000 </r>
       <r>   64.4654    0.0000 </r>
       <r>   64.7524    0.0000 </r>
       <r>   68.6672    0.0000 </r>
       <r>   69.9418    0.0000 </r>
       <r>   72.3569    0.0000 </r>
       <r>   72.6175    0.0000 </r>
       <r>   73.4323    0.0000 </r>
       <r>   74.4797    0.0000 </r>
      </set>
      <set comment="kpoint 33">
       <r>   -0.6076    1.0000 </r>
       <r>    2.8443    1.0000 </r>
       <r>    6.2713    1.0000 </r>
       <r>    6.7468    1.0000 </r>
       <r>    6.7469    1.0000 </r>
       <r>    7.1699    1.0000 </r>
       <r>    7.1700    1.0000 </r>
       <r>    7.6178    1.0000 </r>
       <r>    8.4110    1.0105 </r>
       <r>    8.4110    1.0105 </r>
       <r>    9.6993   -0.0000 </r>
       <r>    9.6994   -0.0000 </r>
       <r>   19.9130    0.0000 </r>
       <r>   32.2320    0.0000 </r>
       <r>   34.3667    0.0000 </r>
       <r>   35.9330    0.0000 </r>
       <r>   39.8752    0.0000 </r>
       <r>   39.8752    0.0000 </r>
       <r>   40.4204    0.0000 </r>
       <r>   40.4205    0.0000 </r>
       <r>   42.9805    0.0000 </r>
[...]
       <r>   25.2520    0.0000 </r>
       <r>   26.0826    0.0000 </r>
       <r>   31.4702    0.0000 </r>
       <r>   32.7313    0.0000 </r>
       <r>   37.5217    0.0000 </r>
       <r>   38.6355    0.0000 </r>
       <r>   40.6991    0.0000 </r>
       <r>   42.3189    0.0000 </r>
       <r>   47.3649    0.0000 </r>
       <r>   47.8153    0.0000 </r>
       <r>   57.0948    0.0000 </r>
       <r>   57.6616    0.0000 </r>
       <r>   59.0070    0.0000 </r>
       <r>   60.6681    0.0000 </r>
       <r>   61.2768    0.0000 </r>
       <r>   61.6975    0.0000 </r>
       <r>   63.6513    0.0000 </r>
       <r>   64.0968    0.0000 </r>
       <r>   65.8808    0.0000 </r>
       <r>   66.4699    0.0000 </r>
       <r>   68.0883    0.0000 </r>
       <r>   68.8475    0.0000 </r>
       <r>   70.5808    0.0000 </r>
       <r>   71.3233    0.0000 </r>
       <r>   71.9812    0.0000 </r>
       <r>   73.5782    0.0000 </r>
      </set>
      <set comment="kpoint 95">
       <r>    4.0395    1.0000 </r>
       <r>    4.1210    1.0000 </r>
       <r>    5.2649    1.0000 </r>
       <r>    5.5282    1.0000 </r>
       <r>    6.0171    1.0000 </r>
       <r>    6.2912    1.0000 </r>
       <r>    7.7386    1.0000 </r>
       <r>    7.9887    1.0000 </r>
       <r>    9.8479   -0.0000 </r>
       <r>   10.0678   -0.0000 </r>
       <r>   14.5292    0.0000 </r>
       <r>   15.1247    0.0000 </r>
       <r>   21.2539    0.0000 </r>
       <r>   21.7652    0.0000 </r>
       <r>   23.5380    0.0000 </r>
       <r>   24.0046    0.0000 </r>
       <r>   31.7011    0.0000 </r>
       <r>   33.5315    0.0000 </r>
       <r>   37.4932    0.0000 </r>
       <r>   39.1494    0.0000 </r>
       <r>   40.5275    0.0000 </r>
       <r>   41.8619    0.0000 </r>
       <r>   49.0394    0.0000 </r>
       <r>   49.4931    0.0000 </r>
       <r>   54.4964    0.0000 </r>
       <r>   54.5261    0.0000 </r>
       <r>   61.0691    0.0000 </r>
       <r>   61.5792    0.0000 </r>
       <r>   62.0787    0.0000 </r>
       <r>   62.9396    0.0000 </r>
       <r>   63.9681    0.0000 </r>
       <r>   64.1697    0.0000 </r>
       <r>   64.7358    0.0000 </r>
       <r>   65.5115    0.0000 </r>
       <r>   68.3467    0.0000 </r>
       <r>   69.0060    0.0000 </r>
       <r>   69.5487    0.0000 </r>
       <r>   69.6977    0.0000 </r>
       <r>   70.9940    0.0000 </r>
       <r>   73.3893    0.0000 </r>
      </set>
      <set comment="kpoint 96">
       <r>    4.2660    1.0000 </r>
       <r>    4.4349    1.0000 </r>
       <r>    5.1298    1.0000 </r>
       <r>    5.2069    1.0000 </r>
       <r>    6.0864    1.0000 </r>
       <r>    6.2193    1.0000 </r>
       <r>    7.8382    1.0000 </r>
       <r>    8.0285    1.0000 </r>
       <r>    9.8039   -0.0000 </r>
       <r>    9.8872   -0.0000 </r>
       <r>   16.4654    0.0000 </r>
       <r>   16.6211    0.0000 </r>
       <r>   19.5340    0.0000 </r>
       <r>   19.9570    0.0000 </r>
       <r>   22.8880    0.0000 </r>
       <r>   23.3509    0.0000 </r>
       <r>   33.3395    0.0000 </r>
       <r>   34.4223    0.0000 </r>
       <r>   36.7983    0.0000 </r>
       <r>   36.9363    0.0000 </r>
       <r>   40.3599    0.0000 </r>
       <r>   41.2793    0.0000 </r>
       <r>   50.4605    0.0000 </r>
       <r>   51.1797    0.0000 </r>
       <r>   55.1439    0.0000 </r>
       <r>   55.5651    0.0000 </r>
       <r>   59.0495    0.0000 </r>
       <r>   59.3663    0.0000 </r>
       <r>   62.8676    0.0000 </r>
       <r>   63.8816    0.0000 </r>
       <r>   64.0935    0.0000 </r>
       <r>   64.2289    0.0000 </r>
       <r>   65.4415    0.0000 </r>
       <r>   65.9175    0.0000 </r>
       <r>   67.0215    0.0000 </r>
       <r>   68.1333    0.0000 </r>
       <r>   70.6843    0.0000 </r>
       <r>   72.7497    0.0000 </r>
       <r>   72.8948    0.0000 </r>
       <r>   74.0030    0.0000 </r>
      </set>
     </set>
    </set>
   </array>
  </eigenvalues>
  <separator name="orbital magnetization" >
   <v name="MAGDIPOLOUT">      0.00000000      0.00000000      0.00000000</v>
  </separator>
  <dos>
   <i name="efermi">      8.79324702 </i>
   <total>
    <array>
     <dimension dim="1">gridpoints</dimension>
     <dimension dim="2">spin</dimension>
     <field>energy</field>
     <field>total</field>
     <field>integrated</field>
     <set>
      <set comment="spin 1">
       <r>    -4.8056     0.0000     0.0000 </r>
       <r>    -4.5257     0.0000     0.0000 </r>
       <r>    -4.2459     0.0000     0.0000 </r>
       <r>    -3.9660     0.0000     0.0000 </r>
       <r>    -3.6861     0.0000     0.0000 </r>
       <r>    -3.4063     0.0000     0.0000 </r>
       <r>    -3.1264     0.0000     0.0000 </r>
       <r>    -2.8465    -0.0000    -0.0000 </r>
       <r>    -2.5666    -0.0000    -0.0000 </r>
       <r>    -2.2868    -0.0000    -0.0000 </r>
       <r>    -2.0069    -0.0000    -0.0000 </r>
       <r>    -1.7270    -0.0000    -0.0000 </r>
       <r>    -1.4471    -0.0000    -0.0000 </r>
       <r>    -1.1673    -0.0004    -0.0001 </r>
       <r>    -0.8874     0.0083     0.0022 </r>
       <r>    -0.6075     0.0442     0.0146 </r>
       <r>    -0.3277     0.0874     0.0390 </r>
       <r>    -0.0478     0.0580     0.0553 </r>
       <r>     0.2321     0.1239     0.0899 </r>
       <r>     0.5120     0.1695     0.1374 </r>
       <r>     0.7918     0.1511     0.1797 </r>
       <r>     1.0717     0.1036     0.2087 </r>
       <r>     1.3516     0.1750     0.2577 </r>
       <r>     1.6315     0.3260     0.3489 </r>
       <r>     1.9113     0.2469     0.4180 </r>
       <r>     2.1912     0.2971     0.5012 </r>
       <r>     2.4711     0.2101     0.5600 </r>
       <r>     2.7509     0.6117     0.7312 </r>
       <r>     3.0308     1.5869     1.1753 </r>
       <r>     3.3107     1.6094     1.6257 </r>
       <r>     3.5906     2.1994     2.2413 </r>
       <r>     3.8704     2.4730     2.9334 </r>
       <r>     4.1503     2.5373     3.6435 </r>
       <r>     4.4302     1.9600     4.1921 </r>
       <r>     4.7101     2.0807     4.7744 </r>
       <r>     4.9899     2.7514     5.5444 </r>
       <r>     5.2698     2.5965     6.2711 </r>
       <r>     5.5497     2.5513     6.9851 </r>
       <r>     5.8295     1.9019     7.5174 </r>
       <r>     6.1094     1.7648     8.0114 </r>
       <r>     6.3893     2.9819     8.8459 </r>
       <r>     6.6692     3.3179     9.7745 </r>
       <r>     6.9490     3.2621    10.6875 </r>
       <r>     7.2289     3.3120    11.6144 </r>
       <r>     7.5088     3.9002    12.7060 </r>
       <r>     7.7887     3.1040    13.5747 </r>
       <r>     8.0685     2.3478    14.2318 </r>
       <r>     8.3484     2.2148    14.8516 </r>
       <r>     8.6283     2.6494    15.5931 </r>
       <r>     8.9081     2.2416    16.2205 </r>
       <r>     9.1880     1.6608    16.6853 </r>
       <r>     9.4679     3.2554    17.5964 </r>
       <r>     9.7478     4.1620    18.7612 </r>
       <r>    10.0276     4.4103    19.9956 </r>
       <r>    10.3075     3.6714    21.0231 </r>
       <r>    10.5874     0.6889    21.2159 </r>
       <r>    10.8672     0.1413    21.2554 </r>
       <r>    11.1471     0.2946    21.3379 </r>
       <r>    11.4270     1.0758    21.6390 </r>
       <r>    11.7069     0.6339    21.8164 </r>
       <r>    11.9867     0.2524    21.8870 </r>
       <r>    12.2666     0.5479    22.0403 </r>
       <r>    12.5465     0.5293    22.1885 </r>
       <r>    12.8264     0.2810    22.2671 </r>
       <r>    13.1062     0.1624    22.3126 </r>
       <r>    13.3861     0.6880    22.5051 </r>
       <r>    13.6660     0.6371    22.6834 </r>
       <r>    13.9458     0.4341    22.8049 </r>
       <r>    14.2257     0.2018    22.8614 </r>
       <r>    14.5056     0.3384    22.9561 </r>
       <r>    14.7855     0.3193    23.0455 </r>
       <r>    15.0653     0.4935    23.1836 </r>
       <r>    15.3452     0.4050    23.2969 </r>
       <r>    15.6251     0.1962    23.3518 </r>
       <r>    15.9050     0.3112    23.4389 </r>
       <r>    16.1848     0.2045    23.4962 </r>
       <r>    16.4647     0.4304    23.6166 </r>
       <r>    16.7446     0.5438    23.7688 </r>
       <r>    17.0244     0.3056    23.8543 </r>
       <r>    17.3043     0.0847    23.8780 </r>
       <r>    17.5842     0.0557    23.8936 </r>
       <r>    17.8641     0.1730    23.9420 </r>
       <r>    18.1439     0.0459    23.9549 </r>
       <r>    18.4238     0.0991    23.9826 </r>
       <r>    18.7037     0.2322    24.0476 </r>
       <r>    18.9836     0.2978    24.1310 </r>
       <r>    19.2634     0.3799    24.2373 </r>
       <r>    19.5433     0.3542    24.3364 </r>
       <r>    19.8232     0.2600    24.4092 </r>
       <r>    20.1030     0.7974    24.6323 </r>
       <r>    20.3829     0.8732    24.8767 </r>
       <r>    20.6628     0.7251    25.0797 </r>
       <r>    20.9427     0.5922    25.2454 </r>
       <r>    21.2225     0.3489    25.3430 </r>
       <r>    21.5024     0.7200    25.5445 </r>
       <r>    21.7823     0.5598    25.7012 </r>
       <r>    22.0622     0.8954    25.9518 </r>
       <r>    22.3420     0.6422    26.1315 </r>
       <r>    22.6219     0.4867    26.2677 </r>
       <r>    22.9018     0.6961    26.4626 </r>
       <r>    23.1816     0.8158    26.6909 </r>
       <r>    23.4615     0.6144    26.8628 </r>
       <r>    23.7414     0.6336    27.0401 </r>
       <r>    24.0213     0.6652    27.2263 </r>
       <r>    24.3011     0.6622    27.4116 </r>
       <r>    24.5810     0.5968    27.5787 </r>
       <r>    24.8609     0.5088    27.7211 </r>
       <r>    25.1408     0.3970    27.8322 </r>
       <r>    25.4206     0.5786    27.9941 </r>
       <r>    25.7005     0.5836    28.1574 </r>
       <r>    25.9804     0.6974    28.3526 </r>
       <r>    26.2602     0.6075    28.5227 </r>
       <r>    26.5401     0.4846    28.6583 </r>
       <r>    26.8200     0.9201    28.9158 </r>
       <r>    27.0999     0.9523    29.1823 </r>
       <r>    27.3797     0.6010    29.3505 </r>
       <r>    27.6596     0.8871    29.5988 </r>
       <r>    27.9395     0.7970    29.8219 </r>
       <r>    28.2194     0.7201    30.0234 </r>
       <r>    28.4992     0.7620    30.2367 </r>
       <r>    28.7791     0.9723    30.5088 </r>
       <r>    29.0590     0.7290    30.7128 </r>
       <r>    29.3388     0.7337    30.9182 </r>
       <r>    29.6187     1.0688    31.2173 </r>
       <r>    29.8986     1.0439    31.5094 </r>
       <r>    30.1785     0.6432    31.6894 </r>
       <r>    30.4583     1.0593    31.9859 </r>
       <r>    30.7382     0.6144    32.1579 </r>
       <r>    31.0181     0.5701    32.3174 </r>
       <r>    31.2979     1.0132    32.6010 </r>
       <r>    31.5778     0.9206    32.8587 </r>
       <r>    31.8577     0.9315    33.1194 </r>
       <r>    32.1376     0.9082    33.3736 </r>
       <r>    32.4174     0.7691    33.5888 </r>
       <r>    32.6973     0.9838    33.8642 </r>
       <r>    32.9772     0.8590    34.1046 </r>
       <r>    33.2571     0.4952    34.2432 </r>
       <r>    33.5369     0.3559    34.3428 </r>
       <r>    33.8168     0.8281    34.5745 </r>
       <r>    34.0967     0.9562    34.8422 </r>
       <r>    34.3765     0.7129    35.0417 </r>
       <r>    34.6564     0.7387    35.2484 </r>
       <r>    34.9363     0.5508    35.4026 </r>
       <r>    35.2162     0.7401    35.6097 </r>
       <r>    35.4960     0.7573    35.8216 </r>
       <r>    35.7759     0.5980    35.9890 </r>
       <r>    36.0558     0.4239    36.1076 </r>
       <r>    36.3357     0.5024    36.2482 </r>
       <r>    36.6155     0.2962    36.3311 </r>
       <r>    36.8954     0.8940    36.5813 </r>
       <r>    37.1753     0.9326    36.8424 </r>
       <r>    37.4551     0.6810    37.0330 </r>
       <r>    37.7350     1.1985    37.3684 </r>
       <r>    38.0149     0.9206    37.6260 </r>
       <r>    38.2948     0.3939    37.7363 </r>
       <r>    38.5746     0.8617    37.9775 </r>
       <r>    38.8545     0.5264    38.1248 </r>
       <r>    39.1344     1.2430    38.4727 </r>
       <r>    39.4143     1.0317    38.7614 </r>
       <r>    39.6941     0.6836    38.9527 </r>
       <r>    39.9740     0.7649    39.1668 </r>
       <r>    40.2539     0.6921    39.3605 </r>
       <r>    40.5337     0.8017    39.5849 </r>
       <r>    40.8136     0.7799    39.8032 </r>
       <r>    41.0935     0.8823    40.0501 </r>
       <r>    41.3734     0.5422    40.2018 </r>
       <r>    41.6532     0.7624    40.4152 </r>
       <r>    41.9331     1.1578    40.7392 </r>
       <r>    42.2130     0.5981    40.9066 </r>
       <r>    42.4929     0.7034    41.1035 </r>
       <r>    42.7727     0.7183    41.3045 </r>
       <r>    43.0526     0.7110    41.5035 </r>
       <r>    43.3325     0.9719    41.7755 </r>
       <r>    43.6123     0.8968    42.0265 </r>
       <r>    43.8922     0.9636    42.2962 </r>
       <r>    44.1721     0.8212    42.5260 </r>
       <r>    44.4520     0.6439    42.7062 </r>
       <r>    44.7318     0.8075    42.9323 </r>
       <r>    45.0117     1.0759    43.2334 </r>
       <r>    45.2916     0.9836    43.5087 </r>
       <r>    45.5715     0.3925    43.6185 </r>
       <r>    45.8513     0.7848    43.8381 </r>
       <r>    46.1312     0.4940    43.9764 </r>
       <r>    46.4111     0.8699    44.2198 </r>
       <r>    46.6909     0.7024    44.4164 </r>
       <r>    46.9708     0.7088    44.6148 </r>
       <r>    47.2507     1.0419    44.9064 </r>
       <r>    47.5306     1.1337    45.2237 </r>
       <r>    47.8104     1.3340    45.5970 </r>
       <r>    48.0903     1.1593    45.9215 </r>
       <r>    48.3702     0.6812    46.1121 </r>
       <r>    48.6501     0.8651    46.3542 </r>
       <r>    48.9299     0.9928    46.6321 </r>
       <r>    49.2098     1.0921    46.9377 </r>
       <r>    49.4897     0.9680    47.2087 </r>
       <r>    49.7695     0.9189    47.4659 </r>
       <r>    50.0494     1.2145    47.8057 </r>
       <r>    50.3293     0.9534    48.0726 </r>
       <r>    50.6092     1.1111    48.3835 </r>
       <r>    50.8890     0.9028    48.6362 </r>
       <r>    51.1689     0.7401    48.8433 </r>
       <r>    51.4488     0.5591    48.9998 </r>
       <r>    51.7287     0.6871    49.1921 </r>
       <r>    52.0085     0.9683    49.4631 </r>
       <r>    52.2884     0.7477    49.6724 </r>
       <r>    52.5683     0.4144    49.7883 </r>
       <r>    52.8481     0.9763    50.0616 </r>
       <r>    53.1280     0.7596    50.2742 </r>
       <r>    53.4079     0.7320    50.4790 </r>
       <r>    53.6878     1.3911    50.8684 </r>
       <r>    53.9676     1.0164    51.1528 </r>
       <r>    54.2475     0.9493    51.4185 </r>
       <r>    54.5274     1.1817    51.7493 </r>
       <r>    54.8072     1.3232    52.1196 </r>
       <r>    55.0871     0.9121    52.3749 </r>
       <r>    55.3670     0.6084    52.5451 </r>
       <r>    55.6469     0.7819    52.7639 </r>
       <r>    55.9267     0.9018    53.0163 </r>
       <r>    56.2066     1.1337    53.3336 </r>
       <r>    56.4865     1.2470    53.6826 </r>
       <r>    56.7664     1.0842    53.9861 </r>
       <r>    57.0462     1.1306    54.3025 </r>
       <r>    57.3261     1.0478    54.5957 </r>
       <r>    57.6060     1.1959    54.9304 </r>
       <r>    57.8858     1.3402    55.3055 </r>
       <r>    58.1657     1.3401    55.6806 </r>
       <r>    58.4456     1.0131    55.9641 </r>
       <r>    58.7255     1.2500    56.3140 </r>
       <r>    59.0053     1.2802    56.6723 </r>
       <r>    59.2852     0.8640    56.9141 </r>
       <r>    59.5651     1.1438    57.2342 </r>
       <r>    59.8450     1.1460    57.5549 </r>
       <r>    60.1248     1.4236    57.9533 </r>
       <r>    60.4047     1.7038    58.4302 </r>
       <r>    60.6846     1.3093    58.7966 </r>
       <r>    60.9644     1.5953    59.2431 </r>
       <r>    61.2443     1.2590    59.5954 </r>
       <r>    61.5242     1.2016    59.9317 </r>
       <r>    61.8041     1.9772    60.4851 </r>
       <r>    62.0839     1.9134    61.0206 </r>
       <r>    62.3638     2.0426    61.5923 </r>
       <r>    62.6437     2.2924    62.2339 </r>
       <r>    62.9236     1.8939    62.7639 </r>
       <r>    63.2034     1.9187    63.3009 </r>
       <r>    63.4833     2.4929    63.9986 </r>
       <r>    63.7632     2.4390    64.6812 </r>
       <r>    64.0430     2.6105    65.4118 </r>
       <r>    64.3229     2.4527    66.0982 </r>
       <r>    64.6028     1.9879    66.6546 </r>
       <r>    64.8827     1.9736    67.2070 </r>
       <r>    65.1625     1.3909    67.5962 </r>
       <r>    65.4424     1.4115    67.9913 </r>
       <r>    65.7223     1.7539    68.4822 </r>
       <r>    66.0022     1.4142    68.8780 </r>
       <r>    66.2820     1.2931    69.2398 </r>
       <r>    66.5619     1.4199    69.6372 </r>
       <r>    66.8418     1.3220    70.0072 </r>
       <r>    67.1216     1.3589    70.3875 </r>
       <r>    67.4015     1.2187    70.7286 </r>
       <r>    67.6814     1.4773    71.1421 </r>
       <r>    67.9613     1.2307    71.4865 </r>
       <r>    68.2411     1.0594    71.7830 </r>
       <r>    68.5210     1.0261    72.0702 </r>
       <r>    68.8009     1.7003    72.5460 </r>
       <r>    69.0808     1.2926    72.9078 </r>
       <r>    69.3606     1.3845    73.2953 </r>
       <r>    69.6405     1.5826    73.7382 </r>
       <r>    69.9204     1.7450    74.2266 </r>
       <r>    70.2002     1.5151    74.6506 </r>
       <r>    70.4801     0.8047    74.8758 </r>
       <r>    70.7600     1.0907    75.1811 </r>
       <r>    71.0399     1.4060    75.5746 </r>
       <r>    71.3197     1.4328    75.9756 </r>
       <r>    71.5996     1.2903    76.3367 </r>
       <r>    71.8795     1.3677    76.7195 </r>
       <r>    72.1594     1.3814    77.1061 </r>
       <r>    72.4392     0.9115    77.3612 </r>
       <r>    72.7191     0.7097    77.5599 </r>
       <r>    72.9990     1.5954    78.0064 </r>
       <r>    73.2788     1.4756    78.4193 </r>
       <r>    73.5587     1.1378    78.7378 </r>
       <r>    73.8386     1.1519    79.0601 </r>
       <r>    74.1185     0.7820    79.2790 </r>
       <r>    74.3983     0.8496    79.5168 </r>
       <r>    74.6782     0.9092    79.7713 </r>
       <r>    74.9581     0.5068    79.9131 </r>
       <r>    75.2380     0.2149    79.9732 </r>
       <r>    75.5178     0.0990    80.0009 </r>
       <r>    75.7977    -0.0031    80.0001 </r>
       <r>    76.0776    -0.0002    80.0000 </r>
       <r>    76.3574    -0.0000    80.0000 </r>
       <r>    76.6373    -0.0000    80.0000 </r>
       <r>    76.9172     0.0000    80.0000 </r>
       <r>    77.1971     0.0000    80.0000 </r>
       <r>    77.4769     0.0000    80.0000 </r>
       <r>    77.7568     0.0000    80.0000 </r>
       <r>    78.0367     0.0000    80.0000 </r>
       <r>    78.3165     0.0000    80.0000 </r>
       <r>    78.5964     0.0000    80.0000 </r>
       <r>    78.8763     0.0000    80.0000 </r>
       <r>    79.1562     0.0000    80.0000 </r>
      </set>
     </set>
    </array>
   </total>
  </dos>
 </calculation>
 <structure name="finalpos" >
  <crystal>
   <varray name="basis" >
    <v>       2.28340000       0.00000000       0.00000000 </v>
    <v>      -1.14170000       1.97748241       0.00000000 </v>
    <v>       0.00000000       0.00000000       3.85728000 </v>
   </varray>
   <i name="volume">     17.41709780 </i>
   <varray name="rec_basis" >
    <v>       0.43794342       0.25284675       0.00000000 </v>
    <v>       0.00000000       0.50569350       0.00000000 </v>
    <v>       0.00000000       0.00000000       0.25925004 </v>
   </varray>
  </crystal>
  <varray name="positions" >
   <v>       0.00000000       0.00000000       0.00000000 </v>
   <v>       0.33333333       0.66666667       0.50000000 </v>
  </varray>
 </structure>
</modeling>
