unknown system                          
   1.00000000000000     
     3.752338    0.000000    0.000000
     0.000000    3.752338    0.000000
     0.000000    0.000000    3.752338
   Cu
     4
Direct
  0.000000  0.000000  0.000000
  0.500000  0.500000  0.000000
  0.500000  0.000000  0.500000
  0.000000  0.500000  0.500000
 
   32   32   32
  931.96      874.95      722.97      522.94      326.94      172.99      76.974      33.214      20.197      14.576    
  11.058      8.8204      7.5035      6.9131      6.5377      6.0745      5.8263      6.0745      6.5377      6.9131    
  7.5035      8.8204      11.058      14.576      20.197      33.214      76.974      172.99      326.94      522.94    
  722.97      874.95      874.95      821.17      677.83      489.24      304.79      160.59      71.515      31.628    
  19.824      14.369      10.978      8.8394      7.5939      7.0464      6.7115      6.2976      6.0745      6.2976    
  6.7115      7.0464      7.5939      8.8394      10.978      14.369      19.824      31.628      71.515      160.59    
  304.79      489.24      677.83      821.17      722.97      677.83      557.57      399.69      246.33      128.32    
  57.715      27.809      18.776      13.807      10.768      8.8847      7.7994      7.3188      7.0380      6.7115    
  6.5377      6.7115      7.0380      7.3188      7.7994      8.8847      10.768      13.807      18.776      27.809    
  57.715      128.32      246.33      399.69      557.57      677.83      522.94      489.24      399.69      282.94    
  171.36      88.322      41.681      23.729      17.248      13.042      10.514      8.9659      8.0539      7.5999    
  7.3188      7.0464      6.9131      7.0464      7.3188      7.5999      8.0539      8.9659      10.514      13.042    
  17.248      23.729      41.681      88.322      171.36      282.94      399.69      489.24      326.94      304.79    
  246.33      171.36      102.06      53.640      29.267      20.501      15.527      12.264      10.334      9.1608    
  8.4503      8.0539      7.7994      7.5939      7.5035      7.5939      7.7994      8.0539      8.4503      9.1608    
  10.334      12.264      15.527      20.501      29.267      53.640      102.06      171.36      246.33      304.79    
  172.99      160.59      128.32      88.322      53.640      31.968      22.444      17.541      13.921      11.647    
  10.335      9.5791      9.1608      8.9659      8.8847      8.8394      8.8204      8.8394      8.8847      8.9659    
  9.1608      9.5791      10.335      11.647      13.921      17.541      22.444      31.968      53.640      88.322    
  128.32      160.59      76.974      71.515      57.715      41.681      29.267      22.444      18.302      14.964    
  12.670      11.314      10.615      10.335      10.334      10.514      10.768      10.978      11.058      10.978    
  10.768      10.514      10.334      10.335      10.615      11.314      12.670      14.964      18.302      22.444    
  29.267      41.681      57.715      71.515      33.214      31.628      27.809      23.729      20.501      17.541    
  14.964      13.065      11.898      11.361      11.314      11.647      12.264      13.042      13.807      14.369    
  14.576      14.369      13.807      13.042      12.264      11.647      11.314      11.361      11.898      13.065    
  14.964      17.541      20.501      23.729      27.809      31.628      20.197      19.824      18.776      17.248    
  15.527      13.921      12.670      11.898      11.641      11.898      12.670      13.921      15.527      17.248    
  18.776      19.824      20.197      19.824      18.776      17.248      15.527      13.921      12.670      11.898    
  11.641      11.898      12.670      13.921      15.527      17.248      18.776      19.824      14.576      14.369    
  13.807      13.042      12.264      11.647      11.314      11.361      11.898      13.065      14.964      17.541    
  20.501      23.729      27.809      31.628      33.214      31.628      27.809      23.729      20.501      17.541    
  14.964      13.065      11.898      11.361      11.314      11.647      12.264      13.042      13.807      14.369    
  11.058      10.978      10.768      10.514      10.334      10.335      10.615      11.314      12.670      14.964    
  18.302      22.444      29.267      41.681      57.715      71.515      76.974      71.515      57.715      41.681    
  29.267      22.444      18.302      14.964      12.670      11.314      10.615      10.335      10.334      10.514    
  10.768      10.978      8.8204      8.8394      8.8847      8.9659      9.1608      9.5791      10.335      11.647    
  13.921      17.541      22.444      31.968      53.640      88.322      128.32      160.59      172.99      160.59    
  128.32      88.322      53.640      31.968      22.444      17.541      13.921      11.647      10.335      9.5791    
  9.1608      8.9659      8.8847      8.8394      7.5035      7.5939      7.7994      8.0539      8.4503      9.1608    
  10.334      12.264      15.527      20.501      29.267      53.640      102.06      171.36      246.33      304.79    
  326.94      304.79      246.33      171.36      102.06      53.640      29.267      20.501      15.527      12.264    
  10.334      9.1608      8.4503      8.0539      7.7994      7.5939      6.9131      7.0464      7.3188      7.5999    
  8.0539      8.9659      10.514      13.042      17.248      23.729      41.681      88.322      171.36      282.94    
  399.69      489.24      522.94      489.24      399.69      282.94      171.36      88.322      41.681      23.729    
  17.248      13.042      10.514      8.9659      8.0539      7.5999      7.3188      7.0464      6.5377      6.7115    
  7.0380      7.3188      7.7994      8.8847      10.768      13.807      18.776      27.809      57.715      128.32    
  246.33      399.69      557.57      677.83      722.97      677.83      557.57      399.69      246.33      128.32    
  57.715      27.809      18.776      13.807      10.768      8.8847      7.7994      7.3188      7.0380      6.7115    
  6.0745      6.2976      6.7115      7.0464      7.5939      8.8394      10.978      14.369      19.824      31.628    
  71.515      160.59      304.79      489.24      677.83      821.17      874.95      821.17      677.83      489.24    
  304.79      160.59      71.515      31.628      19.824      14.369      10.978      8.8394      7.5939      7.0464    
  6.7115      6.2976      5.8263      6.0745      6.5377      6.9131      7.5035      8.8204      11.058      14.576    
  20.197      33.214      76.974      172.99      326.94      522.94      722.97      874.95      931.96      874.95    
  722.97      522.94      326.94      172.99      76.974      33.214      20.197      14.576      11.058      8.8204    
  7.5035      6.9131      6.5377      6.0745      6.0745      6.2976      6.7115      7.0464      7.5939      8.8394    
  10.978      14.369      19.824      31.628      71.515      160.59      304.79      489.24      677.83      821.17    
  874.95      821.17      677.83      489.24      304.79      160.59      71.515      31.628      19.824      14.369    
  10.978      8.8394      7.5939      7.0464      6.7115      6.2976      6.5377      6.7115      7.0380      7.3188    
  7.7994      8.8847      10.768      13.807      18.776      27.809      57.715      128.32      246.33      399.69    
  557.57      677.83      722.97      677.83      557.57      399.69      246.33      128.32      57.715      27.809    
  18.776      13.807      10.768      8.8847      7.7994      7.3188      7.0380      6.7115      6.9131      7.0464    
  7.3188      7.5999      8.0539      8.9659      10.514      13.042      17.248      23.729      41.681      88.322    
  171.36      282.94      399.69      489.24      522.94      489.24      399.69      282.94      171.36      88.322    
  41.681      23.729      17.248      13.042      10.514      8.9659      8.0539      7.5999      7.3188      7.0464    
  7.5035      7.5939      7.7994      8.0539      8.4503      9.1608      10.334      12.264      15.527      20.501    
  29.267      53.640      102.06      171.36      246.33      304.79      326.94      304.79      246.33      171.36    
  102.06      53.640      29.267      20.501      15.527      12.264      10.334      9.1608      8.4503      8.0539    
  7.7994      7.5939      8.8204      8.8394      8.8847      8.9659      9.1608      9.5791      10.335      11.647    
  13.921      17.541      22.444      31.968      53.640      88.322      128.32      160.59      172.99      160.59    
  128.32      88.322      53.640      31.968      22.444      17.541      13.921      11.647      10.335      9.5791    
  9.1608      8.9659      8.8847      8.8394      11.058      10.978      10.768      10.514      10.334      10.335    
  10.615      11.314      12.670      14.964      18.302      22.444      29.267      41.681      57.715      71.515    
  76.974      71.515      57.715      41.681      29.267      22.444      18.302      14.964      12.670      11.314    
  10.615      10.335      10.334      10.514      10.768      10.978      14.576      14.369      13.807      13.042    
  12.264      11.647      11.314      11.361      11.898      13.065      14.964      17.541      20.501      23.729    
  27.809      31.628      33.214      31.628      27.809      23.729      20.501      17.541      14.964      13.065    
  11.898      11.361      11.314      11.647      12.264      13.042      13.807      14.369      20.197      19.824    
  18.776      17.248      15.527      13.921      12.670      11.898      11.641      11.898      12.670      13.921    
  15.527      17.248      18.776      19.824      20.197      19.824      18.776      17.248      15.527      13.921    
  12.670      11.898      11.641      11.898      12.670      13.921      15.527      17.248      18.776      19.824    
  33.214      31.628      27.809      23.729      20.501      17.541      14.964      13.065      11.898      11.361    
  11.314      11.647      12.264      13.042      13.807      14.369      14.576      14.369      13.807      13.042    
  12.264      11.647      11.314      11.361      11.898      13.065      14.964      17.541      20.501      23.729    
  27.809      31.628      76.974      71.515      57.715      41.681      29.267      22.444      18.302      14.964    
  12.670      11.314      10.615      10.335      10.334      10.514      10.768      10.978      11.058      10.978    
  10.768      10.514      10.334      10.335      10.615      11.314      12.670      14.964      18.302      22.444    
  29.267      41.681      57.715      71.515      172.99      160.59      128.32      88.322      53.640      31.968    
  22.444      17.541      13.921      11.647      10.335      9.5791      9.1608      8.9659      8.8847      8.8394    
  8.8204      8.8394      8.8847      8.9659      9.1608      9.5791      10.335      11.647      13.921      17.541    
  22.444      31.968      53.640      88.322      128.32      160.59      326.94      304.79      246.33      171.36    
  102.06      53.640      29.267      20.501      15.527      12.264      10.334      9.1608      8.4503      8.0539    
  7.7994      7.5939      7.5035      7.5939      7.7994      8.0539      8.4503      9.1608      10.334      12.264    
  15.527      20.501      29.267      53.640      102.06      171.36      246.33      304.79      522.94      489.24    
  399.69      282.94      171.36      88.322      41.681      23.729      17.248      13.042      10.514      8.9659    
  8.0539      7.5999      7.3188      7.0464      6.9131      7.0464      7.3188      7.5999      8.0539      8.9659    
  10.514      13.042      17.248      23.729      41.681      88.322      171.36      282.94      399.69      489.24    
  722.97      677.83      557.57      399.69      246.33      128.32      57.715      27.809      18.776      13.807    
  10.768      8.8847      7.7994      7.3188      7.0380      6.7115      6.5377      6.7115      7.0380      7.3188    
  7.7994      8.8847      10.768      13.807      18.776      27.809      57.715      128.32      246.33      399.69    
  557.57      677.83      874.95      821.17      677.83      489.24      304.79      160.59      71.515      31.628    
  19.824      14.369      10.978      8.8394      7.5939      7.0464      6.7115      6.2976      6.0745      6.2976    
  6.7115      7.0464      7.5939      8.8394      10.978      14.369      19.824      31.628      71.515      160.59    
  304.79      489.24      677.83      821.17      874.95      821.17      677.83      489.24      304.79      160.59    
  71.515      31.628      19.824      14.369      10.978      8.8394      7.5939      7.0464      6.7115      6.2976    
  6.0745      6.2976      6.7115      7.0464      7.5939      8.8394      10.978      14.369      19.824      31.628    
  71.515      160.59      304.79      489.24      677.83      821.17      821.17      770.46      635.27      457.52    
  284.02      149.04      66.503      30.206      19.460      14.168      10.899      8.8540      7.6747      7.1658    
  6.8670      6.4979      6.2976      6.4979      6.8670      7.1658      7.6747      8.8540      10.899      14.168    
  19.460      30.206      66.503      149.04      284.02      457.52      635.27      770.46      677.83      635.27    
  521.91      373.24      229.21      119.04      53.868      26.788      18.436      13.622      10.693      8.8902    
  7.8595      7.4099      7.1578      6.8670      6.7115      6.8670      7.1578      7.4099      7.8595      8.8902    
  10.693      13.622      18.436      26.788      53.868      119.04      229.21      373.24      521.91      635.27    
  489.24      457.52      373.24      263.56      159.13      82.009      39.289      23.126      16.947      12.882    
  10.447      8.9625      8.0939      7.6663      7.4099      7.1658      7.0464      7.1658      7.4099      7.6663    
  8.0939      8.9625      10.447      12.882      16.947      23.126      39.289      82.009      159.13      263.56    
  373.24      457.52      304.79      284.02      229.21      159.13      94.716      50.171      28.118      20.100    
  15.279      12.132      10.273      9.1471      8.4688      8.0939      7.8595      7.6747      7.5939      7.6747    
  7.8595      8.0939      8.4688      9.1471      10.273      12.132      15.279      20.100      28.118      50.171    
  94.716      159.13      229.21      284.02      160.59      149.04      119.04      82.009      50.171      30.545    
  21.959      17.223      13.729      11.539      10.276      9.5482      9.1471      8.9625      8.8902      8.8540    
  8.8394      8.8540      8.8902      8.9625      9.1471      9.5482      10.276      11.539      13.729      17.223    
  21.959      30.545      50.171      82.009      119.04      149.04      71.515      66.503      53.868      39.289    
  28.118      21.959      17.958      14.733      12.525      11.221      10.547      10.276      10.273      10.447    
  10.693      10.899      10.978      10.899      10.693      10.447      10.273      10.276      10.547      11.221    
  12.525      14.733      17.958      21.959      28.118      39.289      53.868      66.503      31.628      30.206    
  26.788      23.126      20.100      17.223      14.733      12.906      11.786      11.269      11.221      11.539    
  12.132      12.882      13.622      14.168      14.369      14.168      13.622      12.882      12.132      11.539    
  11.221      11.269      11.786      12.906      14.733      17.223      20.100      23.126      26.788      30.206    
  19.824      19.460      18.436      16.947      15.279      13.729      12.525      11.786      11.540      11.786    
  12.525      13.729      15.279      16.947      18.436      19.460      19.824      19.460      18.436      16.947    
  15.279      13.729      12.525      11.786      11.540      11.786      12.525      13.729      15.279      16.947    
  18.436      19.460      14.369      14.168      13.622      12.882      12.132      11.539      11.221      11.269    
  11.786      12.906      14.733      17.223      20.100      23.126      26.788      30.206      31.628      30.206    
  26.788      23.126      20.100      17.223      14.733      12.906      11.786      11.269      11.221      11.539    
  12.132      12.882      13.622      14.168      10.978      10.899      10.693      10.447      10.273      10.276    
  10.547      11.221      12.525      14.733      17.958      21.959      28.118      39.289      53.868      66.503    
  71.515      66.503      53.868      39.289      28.118      21.959      17.958      14.733      12.525      11.221    
  10.547      10.276      10.273      10.447      10.693      10.899      8.8394      8.8540      8.8902      8.9625    
  9.1471      9.5482      10.276      11.539      13.729      17.223      21.959      30.545      50.171      82.009    
  119.04      149.04      160.59      149.04      119.04      82.009      50.171      30.545      21.959      17.223    
  13.729      11.539      10.276      9.5482      9.1471      8.9625      8.8902      8.8540      7.5939      7.6747    
  7.8595      8.0939      8.4688      9.1471      10.273      12.132      15.279      20.100      28.118      50.171    
  94.716      159.13      229.21      284.02      304.79      284.02      229.21      159.13      94.716      50.171    
  28.118      20.100      15.279      12.132      10.273      9.1471      8.4688      8.0939      7.8595      7.6747    
  7.0464      7.1658      7.4099      7.6663      8.0939      8.9625      10.447      12.882      16.947      23.126    
  39.289      82.009      159.13      263.56      373.24      457.52      489.24      457.52      373.24      263.56    
  159.13      82.009      39.289      23.126      16.947      12.882      10.447      8.9625      8.0939      7.6663    
  7.4099      7.1658      6.7115      6.8670      7.1578      7.4099      7.8595      8.8902      10.693      13.622    
  18.436      26.788      53.868      119.04      229.21      373.24      521.91      635.27      677.83      635.27    
  521.91      373.24      229.21      119.04      53.868      26.788      18.436      13.622      10.693      8.8902    
  7.8595      7.4099      7.1578      6.8670      6.2976      6.4979      6.8670      7.1658      7.6747      8.8540    
  10.899      14.168      19.460      30.206      66.503      149.04      284.02      457.52      635.27      770.46    
  821.17      770.46      635.27      457.52      284.02      149.04      66.503      30.206      19.460      14.168    
  10.899      8.8540      7.6747      7.1658      6.8670      6.4979      6.0745      6.2976      6.7115      7.0464    
  7.5939      8.8394      10.978      14.369      19.824      31.628      71.515      160.59      304.79      489.24    
  677.83      821.17      874.95      821.17      677.83      489.24      304.79      160.59      71.515      31.628    
  19.824      14.369      10.978      8.8394      7.5939      7.0464      6.7115      6.2976      6.2976      6.4979    
  6.8670      7.1658      7.6747      8.8540      10.899      14.168      19.460      30.206      66.503      149.04    
  284.02      457.52      635.27      770.46      821.17      770.46      635.27      457.52      284.02      149.04    
  66.503      30.206      19.460      14.168      10.899      8.8540      7.6747      7.1658      6.8670      6.4979    
  6.7115      6.8670      7.1578      7.4099      7.8595      8.8902      10.693      13.622      18.436      26.788    
  53.868      119.04      229.21      373.24      521.91      635.27      677.83      635.27      521.91      373.24    
  229.21      119.04      53.868      26.788      18.436      13.622      10.693      8.8902      7.8595      7.4099    
  7.1578      6.8670      7.0464      7.1658      7.4099      7.6663      8.0939      8.9625      10.447      12.882    
  16.947      23.126      39.289      82.009      159.13      263.56      373.24      457.52      489.24      457.52    
  373.24      263.56      159.13      82.009      39.289      23.126      16.947      12.882      10.447      8.9625    
  8.0939      7.6663      7.4099      7.1658      7.5939      7.6747      7.8595      8.0939      8.4688      9.1471    
  10.273      12.132      15.279      20.100      28.118      50.171      94.716      159.13      229.21      284.02    
  304.79      284.02      229.21      159.13      94.716      50.171      28.118      20.100      15.279      12.132    
  10.273      9.1471      8.4688      8.0939      7.8595      7.6747      8.8394      8.8540      8.8902      8.9625    
  9.1471      9.5482      10.276      11.539      13.729      17.223      21.959      30.545      50.171      82.009    
  119.04      149.04      160.59      149.04      119.04      82.009      50.171      30.545      21.959      17.223    
  13.729      11.539      10.276      9.5482      9.1471      8.9625      8.8902      8.8540      10.978      10.899    
  10.693      10.447      10.273      10.276      10.547      11.221      12.525      14.733      17.958      21.959    
  28.118      39.289      53.868      66.503      71.515      66.503      53.868      39.289      28.118      21.959    
  17.958      14.733      12.525      11.221      10.547      10.276      10.273      10.447      10.693      10.899    
  14.369      14.168      13.622      12.882      12.132      11.539      11.221      11.269      11.786      12.906    
  14.733      17.223      20.100      23.126      26.788      30.206      31.628      30.206      26.788      23.126    
  20.100      17.223      14.733      12.906      11.786      11.269      11.221      11.539      12.132      12.882    
  13.622      14.168      19.824      19.460      18.436      16.947      15.279      13.729      12.525      11.786    
  11.540      11.786      12.525      13.729      15.279      16.947      18.436      19.460      19.824      19.460    
  18.436      16.947      15.279      13.729      12.525      11.786      11.540      11.786      12.525      13.729    
  15.279      16.947      18.436      19.460      31.628      30.206      26.788      23.126      20.100      17.223    
  14.733      12.906      11.786      11.269      11.221      11.539      12.132      12.882      13.622      14.168    
  14.369      14.168      13.622      12.882      12.132      11.539      11.221      11.269      11.786      12.906    
  14.733      17.223      20.100      23.126      26.788      30.206      71.515      66.503      53.868      39.289    
  28.118      21.959      17.958      14.733      12.525      11.221      10.547      10.276      10.273      10.447    
  10.693      10.899      10.978      10.899      10.693      10.447      10.273      10.276      10.547      11.221    
  12.525      14.733      17.958      21.959      28.118      39.289      53.868      66.503      160.59      149.04    
  119.04      82.009      50.171      30.545      21.959      17.223      13.729      11.539      10.276      9.5482    
  9.1471      8.9625      8.8902      8.8540      8.8394      8.8540      8.8902      8.9625      9.1471      9.5482    
  10.276      11.539      13.729      17.223      21.959      30.545      50.171      82.009      119.04      149.04    
  304.79      284.02      229.21      159.13      94.716      50.171      28.118      20.100      15.279      12.132    
  10.273      9.1471      8.4688      8.0939      7.8595      7.6747      7.5939      7.6747      7.8595      8.0939    
  8.4688      9.1471      10.273      12.132      15.279      20.100      28.118      50.171      94.716      159.13    
  229.21      284.02      489.24      457.52      373.24      263.56      159.13      82.009      39.289      23.126    
  16.947      12.882      10.447      8.9625      8.0939      7.6663      7.4099      7.1658      7.0464      7.1658    
  7.4099      7.6663      8.0939      8.9625      10.447      12.882      16.947      23.126      39.289      82.009    
  159.13      263.56      373.24      457.52      677.83      635.27      521.91      373.24      229.21      119.04    
  53.868      26.788      18.436      13.622      10.693      8.8902      7.8595      7.4099      7.1578      6.8670    
  6.7115      6.8670      7.1578      7.4099      7.8595      8.8902      10.693      13.622      18.436      26.788    
  53.868      119.04      229.21      373.24      521.91      635.27      821.17      770.46      635.27      457.52    
  284.02      149.04      66.503      30.206      19.460      14.168      10.899      8.8540      7.6747      7.1658    
  6.8670      6.4979      6.2976      6.4979      6.8670      7.1658      7.6747      8.8540      10.899      14.168    
  19.460      30.206      66.503      149.04      284.02      457.52      635.27      770.46      722.97      677.83    
  557.57      399.69      246.33      128.32      57.715      27.809      18.776      13.807      10.768      8.8847    
  7.7994      7.3188      7.0380      6.7115      6.5377      6.7115      7.0380      7.3188      7.7994      8.8847    
  10.768      13.807      18.776      27.809      57.715      128.32      246.33      399.69      557.57      677.83    
  677.83      635.27      521.91      373.24      229.21      119.04      53.868      26.788      18.436      13.622    
  10.693      8.8902      7.8595      7.4099      7.1578      6.8670      6.7115      6.8670      7.1578      7.4099    
  7.8595      8.8902      10.693      13.622      18.436      26.788      53.868      119.04      229.21      373.24    
  521.91      635.27      557.57      521.91      427.05      303.14      184.24      95.071      44.269      24.335    
  17.483      13.124      10.501      8.9073      8.0016      7.6009      7.3862      7.1578      7.0380      7.1578    
  7.3862      7.6009      8.0016      8.9073      10.501      13.124      17.483      24.335      44.269      95.071    
  184.24      303.14      427.05      521.91      399.69      373.24      303.14      212.49      127.29      65.926    
  33.425      21.615      16.112      12.451      10.275      8.9606      8.1960      7.8176      7.6009      7.4099    
  7.3188      7.4099      7.6009      7.8176      8.1960      8.9606      10.275      12.451      16.112      21.615    
  33.425      65.926      127.29      212.49      303.14      373.24      246.33      229.21      184.24      127.29    
  75.899      41.533      25.342      18.967      14.594      11.776      10.117      9.1200      8.5234      8.1960    
  8.0016      7.8595      7.7994      7.8595      8.0016      8.1960      8.5234      9.1200      10.117      11.776    
  14.594      18.967      25.342      41.533      75.899      127.29      184.24      229.21      128.32      119.04    
  95.071      65.926      41.533      27.101      20.653      16.333      13.198      11.247      10.121      9.4741    
  9.1200      8.9606      8.9073      8.8902      8.8847      8.8902      8.9073      8.9606      9.1200      9.4741    
  10.121      11.247      13.198      16.333      20.653      27.101      41.533      65.926      95.071      119.04    
  57.715      53.868      44.269      33.425      25.342      20.653      16.994      14.092      12.127      10.968    
  10.366      10.121      10.117      10.275      10.501      10.693      10.768      10.693      10.501      10.275    
  10.117      10.121      10.366      10.968      12.127      14.092      16.994      20.653      25.342      33.425    
  44.269      53.868      27.809      26.788      24.335      21.615      18.967      16.333      14.092      12.465    
  11.474      11.014      10.968      11.247      11.776      12.451      13.124      13.622      13.807      13.622    
  13.124      12.451      11.776      11.247      10.968      11.014      11.474      12.465      14.092      16.333    
  18.967      21.615      24.335      26.788      18.776      18.436      17.483      16.112      14.594      13.198    
  12.127      11.474      11.257      11.474      12.127      13.198      14.594      16.112      17.483      18.436    
  18.776      18.436      17.483      16.112      14.594      13.198      12.127      11.474      11.257      11.474    
  12.127      13.198      14.594      16.112      17.483      18.436      13.807      13.622      13.124      12.451    
  11.776      11.247      10.968      11.014      11.474      12.465      14.092      16.333      18.967      21.615    
  24.335      26.788      27.809      26.788      24.335      21.615      18.967      16.333      14.092      12.465    
  11.474      11.014      10.968      11.247      11.776      12.451      13.124      13.622      10.768      10.693    
  10.501      10.275      10.117      10.121      10.366      10.968      12.127      14.092      16.994      20.653    
  25.342      33.425      44.269      53.868      57.715      53.868      44.269      33.425      25.342      20.653    
  16.994      14.092      12.127      10.968      10.366      10.121      10.117      10.275      10.501      10.693    
  8.8847      8.8902      8.9073      8.9606      9.1200      9.4741      10.121      11.247      13.198      16.333    
  20.653      27.101      41.533      65.926      95.071      119.04      128.32      119.04      95.071      65.926    
  41.533      27.101      20.653      16.333      13.198      11.247      10.121      9.4741      9.1200      8.9606    
  8.9073      8.8902      7.7994      7.8595      8.0016      8.1960      8.5234      9.1200      10.117      11.776    
  14.594      18.967      25.342      41.533      75.899      127.29      184.24      229.21      246.33      229.21    