unknown system                          
   1.00000000000000     
     3.752338    0.000000    0.000000
     0.000000    3.752338    0.000000
     0.000000    0.000000    3.752338
   Cu
     4
Direct
  0.000000  0.000000  0.000000
  0.500000  0.500000  0.000000
  0.500000  0.000000  0.500000
  0.000000  0.500000  0.500000
 
   32   32   32
 0.93196208858E+03 0.87494806334E+03 0.72297265399E+03 0.52293503864E+03 0.32693570035E+03
 0.17299367416E+03 0.76973605418E+02 0.33213919885E+02 0.20196653407E+02 0.14576222353E+02
 0.11058116714E+02 0.88204203350E+01 0.75034652068E+01 0.69130976792E+01 0.65376864288E+01
 0.60744539093E+01 0.58263047768E+01 0.60744539093E+01 0.65376864288E+01 0.69130976792E+01
 0.75034652068E+01 0.88204203350E+01 0.11058116714E+02 0.14576222353E+02 0.20196653407E+02
 0.33213919885E+02 0.76973605418E+02 0.17299367416E+03 0.32693570035E+03 0.52293503864E+03
 0.72297265399E+03 0.87494806334E+03 0.87494806334E+03 0.82117359333E+03 0.67783363130E+03
 0.48924479277E+03 0.30479476564E+03 0.16059375842E+03 0.71515345856E+02 0.31628322221E+02
 0.19824295121E+02 0.14369256192E+02 0.10977854043E+02 0.88393583662E+01 0.75939442572E+01
 0.70464177014E+01 0.67114939117E+01 0.62975989144E+01 0.60744539093E+01 0.62975989144E+01
 0.67114939117E+01 0.70464177014E+01 0.75939442572E+01 0.88393583662E+01 0.10977854043E+02
 0.14369256192E+02 0.19824295121E+02 0.31628322221E+02 0.71515345856E+02 0.16059375842E+03
 0.30479476564E+03 0.48924479277E+03 0.67783363130E+03 0.82117359333E+03 0.72297265399E+03
 0.67783363130E+03 0.55756796266E+03 0.39969227861E+03 0.24633018129E+03 0.12832441955E+03
 0.57714527362E+02 0.27809056706E+02 0.18776196924E+02 0.13806894716E+02 0.10767904550E+02
 0.88847265030E+01 0.77994292274E+01 0.73188228907E+01 0.70380445035E+01 0.67114939117E+01
 0.65376864288E+01 0.67114939117E+01 0.70380445035E+01 0.73188228907E+01 0.77994292274E+01
 0.88847265030E+01 0.10767904550E+02 0.13806894716E+02 0.18776196924E+02 0.27809056706E+02
 0.57714527362E+02 0.12832441955E+03 0.24633018129E+03 0.39969227861E+03 0.55756796266E+03
 0.67783363130E+03 0.52293503864E+03 0.48924479277E+03 0.39969227861E+03 0.28294366944E+03
 0.17135729050E+03 0.88322198855E+02 0.41680873229E+02 0.23729048500E+02 0.17247752067E+02
 0.13041719274E+02 0.10514413044E+02 0.89658840207E+01 0.80538643730E+01 0.75998870448E+01
 0.73188228907E+01 0.70464177014E+01 0.69130976792E+01 0.70464177014E+01 0.73188228907E+01
 0.75998870448E+01 0.80538643730E+01 0.89658840207E+01 0.10514413044E+02 0.13041719274E+02
 0.17247752067E+02 0.23729048500E+02 0.41680873229E+02 0.88322198855E+02 0.17135729050E+03
 0.28294366944E+03 0.39969227861E+03 0.48924479277E+03 0.32693570035E+03 0.30479476564E+03
 0.24633018129E+03 0.17135729050E+03 0.10205853607E+03 0.53640057519E+02 0.29267466938E+02
 0.20500548430E+02 0.15526956052E+02 0.12264496223E+02 0.10333651470E+02 0.91607686413E+01
 0.84503445657E+01 0.80538643730E+01 0.77994292274E+01 0.75939442572E+01 0.75034652068E+01
 0.75939442572E+01 0.77994292274E+01 0.80538643730E+01 0.84503445657E+01 0.91607686413E+01
 0.10333651470E+02 0.12264496223E+02 0.15526956052E+02 0.20500548430E+02 0.29267466938E+02
 0.53640057519E+02 0.10205853607E+03 0.17135729050E+03 0.24633018129E+03 0.30479476564E+03
 0.17299367416E+03 0.16059375842E+03 0.12832441955E+03 0.88322198855E+02 0.53640057519E+02
 0.31967561405E+02 0.22443925745E+02 0.17540862036E+02 0.13920917060E+02 0.11646772663E+02
 0.10335051485E+02 0.95790761096E+01 0.91607686413E+01 0.89658840207E+01 0.88847265030E+01
 0.88393583662E+01 0.88204203350E+01 0.88393583662E+01 0.88847265030E+01 0.89658840207E+01
 0.91607686413E+01 0.95790761096E+01 0.10335051485E+02 0.11646772663E+02 0.13920917060E+02
 0.17540862036E+02 0.22443925745E+02 0.31967561405E+02 0.53640057519E+02 0.88322198855E+02
 0.12832441955E+03 0.16059375842E+03 0.76973605418E+02 0.71515345856E+02 0.57714527362E+02
 0.41680873229E+02 0.29267466938E+02 0.22443925745E+02 0.18302018635E+02 0.14963886946E+02
 0.12669520165E+02 0.11313613297E+02 0.10615344233E+02 0.10335051485E+02 0.10333651470E+02
 0.10514413044E+02 0.10767904550E+02 0.10977854043E+02 0.11058116714E+02 0.10977854043E+02
 0.10767904550E+02 0.10514413044E+02 0.10333651470E+02 0.10335051485E+02 0.10615344233E+02
 0.11313613297E+02 0.12669520165E+02 0.14963886946E+02 0.18302018635E+02 0.22443925745E+02
 0.29267466938E+02 0.41680873229E+02 0.57714527362E+02 0.71515345856E+02 0.33213919885E+02
 0.31628322221E+02 0.27809056706E+02 0.23729048500E+02 0.20500548430E+02 0.17540862036E+02
 0.14963886946E+02 0.13064826896E+02 0.11898469931E+02 0.11360924258E+02 0.11313613297E+02
 0.11646772663E+02 0.12264496223E+02 0.13041719274E+02 0.13806894716E+02 0.14369256192E+02
 0.14576222353E+02 0.14369256192E+02 0.13806894716E+02 0.13041719274E+02 0.12264496223E+02
 0.11646772663E+02 0.11313613297E+02 0.11360924258E+02 0.11898469931E+02 0.13064826896E+02
 0.14963886946E+02 0.17540862036E+02 0.20500548430E+02 0.23729048500E+02 0.27809056706E+02
 0.31628322221E+02 0.20196653407E+02 0.19824295121E+02 0.18776196924E+02 0.17247752067E+02
 0.15526956052E+02 0.13920917060E+02 0.12669520165E+02 0.11898469931E+02 0.11641201274E+02
 0.11898469931E+02 0.12669520165E+02 0.13920917060E+02 0.15526956052E+02 0.17247752067E+02
 0.18776196924E+02 0.19824295121E+02 0.20196653407E+02 0.19824295121E+02 0.18776196924E+02
 0.17247752067E+02 0.15526956052E+02 0.13920917060E+02 0.12669520165E+02 0.11898469931E+02
 0.11641201274E+02 0.11898469931E+02 0.12669520165E+02 0.13920917060E+02 0.15526956052E+02
 0.17247752067E+02 0.18776196924E+02 0.19824295121E+02 0.14576222353E+02 0.14369256192E+02
 0.13806894716E+02 0.13041719274E+02 0.12264496223E+02 0.11646772663E+02 0.11313613297E+02
 0.11360924258E+02 0.11898469931E+02 0.13064826896E+02 0.14963886946E+02 0.17540862036E+02
 0.20500548430E+02 0.23729048500E+02 0.27809056706E+02 0.31628322221E+02 0.33213919885E+02
 0.31628322221E+02 0.27809056706E+02 0.23729048500E+02 0.20500548430E+02 0.17540862036E+02
 0.14963886946E+02 0.13064826896E+02 0.11898469931E+02 0.11360924258E+02 0.11313613297E+02
 0.11646772663E+02 0.12264496223E+02 0.13041719274E+02 0.13806894716E+02 0.14369256192E+02
 0.11058116714E+02 0.10977854043E+02 0.10767904550E+02 0.10514413044E+02 0.10333651470E+02
 0.10335051485E+02 0.10615344233E+02 0.11313613297E+02 0.12669520165E+02 0.14963886946E+02
 0.18302018635E+02 0.22443925745E+02 0.29267466938E+02 0.41680873229E+02 0.57714527362E+02
 0.71515345856E+02 0.76973605418E+02 0.71515345856E+02 0.57714527362E+02 0.41680873229E+02
 0.29267466938E+02 0.22443925745E+02 0.18302018635E+02 0.14963886946E+02 0.12669520165E+02
 0.11313613297E+02 0.10615344233E+02 0.10335051485E+02 0.10333651470E+02 0.10514413044E+02
 0.10767904550E+02 0.10977854043E+02 0.88204203350E+01 0.88393583662E+01 0.88847265030E+01
 0.89658840207E+01 0.91607686413E+01 0.95790761096E+01 0.10335051485E+02 0.11646772663E+02
 0.13920917060E+02 0.17540862036E+02 0.22443925745E+02 0.31967561405E+02 0.53640057519E+02
 0.88322198855E+02 0.12832441955E+03 0.16059375842E+03 0.17299367416E+03 0.16059375842E+03
 0.12832441955E+03 0.88322198855E+02 0.53640057519E+02 0.31967561405E+02 0.22443925745E+02
 0.17540862036E+02 0.13920917060E+02 0.11646772663E+02 0.10335051485E+02 0.95790761096E+01
 0.91607686413E+01 0.89658840207E+01 0.88847265030E+01 0.88393583662E+01 0.75034652068E+01
 0.75939442572E+01 0.77994292274E+01 0.80538643730E+01 0.84503445657E+01 0.91607686413E+01
 0.10333651470E+02 0.12264496223E+02 0.15526956052E+02 0.20500548430E+02 0.29267466938E+02
 0.53640057519E+02 0.10205853607E+03 0.17135729050E+03 0.24633018129E+03 0.30479476564E+03
 0.32693570035E+03 0.30479476564E+03 0.24633018129E+03 0.17135729050E+03 0.10205853607E+03
 0.53640057519E+02 0.29267466938E+02 0.20500548430E+02 0.15526956052E+02 0.12264496223E+02
 0.10333651470E+02 0.91607686413E+01 0.84503445657E+01 0.80538643730E+01 0.77994292274E+01
 0.75939442572E+01 0.69130976792E+01 0.70464177014E+01 0.73188228907E+01 0.75998870448E+01
 0.80538643730E+01 0.89658840207E+01 0.10514413044E+02 0.13041719274E+02 0.17247752067E+02
 0.23729048500E+02 0.41680873229E+02 0.88322198855E+02 0.17135729050E+03 0.28294366944E+03
 0.39969227861E+03 0.48924479277E+03 0.52293503864E+03 0.48924479277E+03 0.39969227861E+03
 0.28294366944E+03 0.17135729050E+03 0.88322198855E+02 0.41680873229E+02 0.23729048500E+02
 0.17247752067E+02 0.13041719274E+02 0.10514413044E+02 0.89658840207E+01 0.80538643730E+01
 0.75998870448E+01 0.73188228907E+01 0.70464177014E+01 0.65376864288E+01 0.67114939117E+01
 0.70380445035E+01 0.73188228907E+01 0.77994292274E+01 0.88847265030E+01 0.10767904550E+02
 0.13806894716E+02 0.18776196924E+02 0.27809056706E+02 0.57714527362E+02 0.12832441955E+03
 0.24633018129E+03 0.39969227861E+03 0.55756796266E+03 0.67783363130E+03 0.72297265399E+03
 0.67783363130E+03 0.55756796266E+03 0.39969227861E+03 0.24633018129E+03 0.12832441955E+03
 0.57714527362E+02 0.27809056706E+02 0.18776196924E+02 0.13806894716E+02 0.10767904550E+02
 0.88847265030E+01 0.77994292274E+01 0.73188228907E+01 0.70380445035E+01 0.67114939117E+01
 0.60744539093E+01 0.62975989144E+01 0.67114939117E+01 0.70464177014E+01 0.75939442572E+01
 0.88393583662E+01 0.10977854043E+02 0.14369256192E+02 0.19824295121E+02 0.31628322221E+02
 0.71515345856E+02 0.16059375842E+03 0.30479476564E+03 0.48924479277E+03 0.67783363130E+03
 0.82117359333E+03 0.87494806334E+03 0.82117359333E+03 0.67783363130E+03 0.48924479277E+03
 0.30479476564E+03 0.16059375842E+03 0.71515345856E+02 0.31628322221E+02 0.19824295121E+02
 0.14369256192E+02 0.10977854043E+02 0.88393583662E+01 0.75939442572E+01 0.70464177014E+01
 0.67114939117E+01 0.62975989144E+01 0.58263047768E+01 0.60744539093E+01 0.65376864288E+01
 0.69130976792E+01 0.75034652068E+01 0.88204203350E+01 0.11058116714E+02 0.14576222353E+02
 0.20196653407E+02 0.33213919885E+02 0.76973605418E+02 0.17299367416E+03 0.32693570035E+03
 0.52293503864E+03 0.72297265399E+03 0.87494806334E+03 0.93196208858E+03 0.87494806334E+03
 0.72297265399E+03 0.52293503864E+03 0.32693570035E+03 0.17299367416E+03 0.76973605418E+02
 0.33213919885E+02 0.20196653407E+02 0.14576222353E+02 0.11058116714E+02 0.88204203350E+01
 0.75034652068E+01 0.69130976792E+01 0.65376864288E+01 0.60744539093E+01 0.60744539093E+01
 0.62975989144E+01 0.67114939117E+01 0.70464177014E+01 0.75939442572E+01 0.88393583662E+01
 0.10977854043E+02 0.14369256192E+02 0.19824295121E+02 0.31628322221E+02 0.71515345856E+02
 0.16059375842E+03 0.30479476564E+03 0.48924479277E+03 0.67783363130E+03 0.82117359333E+03
 0.87494806334E+03 0.82117359333E+03 0.67783363130E+03 0.48924479277E+03 0.30479476564E+03
 0.16059375842E+03 0.71515345856E+02 0.31628322221E+02 0.19824295121E+02 0.14369256192E+02
 0.10977854043E+02 0.88393583662E+01 0.75939442572E+01 0.70464177014E+01 0.67114939117E+01
 0.62975989144E+01 0.65376864288E+01 0.67114939117E+01 0.70380445035E+01 0.73188228907E+01
 0.77994292274E+01 0.88847265030E+01 0.10767904550E+02 0.13806894716E+02 0.18776196924E+02
 0.27809056706E+02 0.57714527362E+02 0.12832441955E+03 0.24633018129E+03 0.39969227861E+03
 0.55756796266E+03 0.67783363130E+03 0.72297265399E+03 0.67783363130E+03 0.55756796266E+03
 0.39969227861E+03 0.24633018129E+03 0.12832441955E+03 0.57714527362E+02 0.27809056706E+02
 0.18776196924E+02 0.13806894716E+02 0.10767904550E+02 0.88847265030E+01 0.77994292274E+01
 0.73188228907E+01 0.70380445035E+01 0.67114939117E+01 0.69130976792E+01 0.70464177014E+01
 0.73188228907E+01 0.75998870448E+01 0.80538643730E+01 0.89658840207E+01 0.10514413044E+02
 0.13041719274E+02 0.17247752067E+02 0.23729048500E+02 0.41680873229E+02 0.88322198855E+02
 0.17135729050E+03 0.28294366944E+03 0.39969227861E+03 0.48924479277E+03 0.52293503864E+03
 0.48924479277E+03 0.39969227861E+03 0.28294366944E+03 0.17135729050E+03 0.88322198855E+02
 0.41680873229E+02 0.23729048500E+02 0.17247752067E+02 0.13041719274E+02 0.10514413044E+02
 0.89658840207E+01 0.80538643730E+01 0.75998870448E+01 0.73188228907E+01 0.70464177014E+01
 0.75034652068E+01 0.75939442572E+01 0.77994292274E+01 0.80538643730E+01 0.84503445657E+01
 0.91607686413E+01 0.10333651470E+02 0.12264496223E+02 0.15526956052E+02 0.20500548430E+02
 0.29267466938E+02 0.53640057519E+02 0.10205853607E+03 0.17135729050E+03 0.24633018129E+03
 0.30479476564E+03 0.32693570035E+03 0.30479476564E+03 0.24633018129E+03 0.17135729050E+03
 0.10205853607E+03 0.53640057519E+02 0.29267466938E+02 0.20500548430E+02 0.15526956052E+02
 0.12264496223E+02 0.10333651470E+02 0.91607686413E+01 0.84503445657E+01 0.80538643730E+01
 0.77994292274E+01 0.75939442572E+01 0.88204203350E+01 0.88393583662E+01 0.88847265030E+01
 0.89658840207E+01 0.91607686413E+01 0.95790761096E+01 0.10335051485E+02 0.11646772663E+02
 0.13920917060E+02 0.17540862036E+02 0.22443925745E+02 0.31967561405E+02 0.53640057519E+02
 0.88322198855E+02 0.12832441955E+03 0.16059375842E+03 0.17299367416E+03 0.16059375842E+03
 0.12832441955E+03 0.88322198855E+02 0.53640057519E+02 0.31967561405E+02 0.22443925745E+02
 0.17540862036E+02 0.13920917060E+02 0.11646772663E+02 0.10335051485E+02 0.95790761096E+01
 0.91607686413E+01 0.89658840207E+01 0.88847265030E+01 0.88393583662E+01 0.11058116714E+02
 0.10977854043E+02 0.10767904550E+02 0.10514413044E+02 0.10333651470E+02 0.10335051485E+02
 0.10615344233E+02 0.11313613297E+02 0.12669520165E+02 0.14963886946E+02 0.18302018635E+02
 0.22443925745E+02 0.29267466938E+02 0.41680873229E+02 0.57714527362E+02 0.71515345856E+02
 0.76973605418E+02 0.71515345856E+02 0.57714527362E+02 0.41680873229E+02 0.29267466938E+02
 0.22443925745E+02 0.18302018635E+02 0.14963886946E+02 0.12669520165E+02 0.11313613297E+02
 0.10615344233E+02 0.10335051485E+02 0.10333651470E+02 0.10514413044E+02 0.10767904550E+02
 0.10977854043E+02 0.14576222353E+02 0.14369256192E+02 0.13806894716E+02 0.13041719274E+02
 0.12264496223E+02 0.11646772663E+02 0.11313613297E+02 0.11360924258E+02 0.11898469931E+02
 0.13064826896E+02 0.14963886946E+02 0.17540862036E+02 0.20500548430E+02 0.23729048500E+02
 0.27809056706E+02 0.31628322221E+02 0.33213919885E+02 0.31628322221E+02 0.27809056706E+02
 0.23729048500E+02 0.20500548430E+02 0.17540862036E+02 0.14963886946E+02 0.13064826896E+02
 0.11898469931E+02 0.11360924258E+02 0.11313613297E+02 0.11646772663E+02 0.12264496223E+02
 0.13041719274E+02 0.13806894716E+02 0.14369256192E+02 0.20196653407E+02 0.19824295121E+02
 0.18776196924E+02 0.17247752067E+02 0.15526956052E+02 0.13920917060E+02 0.12669520165E+02
 0.11898469931E+02 0.11641201274E+02 0.11898469931E+02 0.12669520165E+02 0.13920917060E+02
 0.15526956052E+02 0.17247752067E+02 0.18776196924E+02 0.19824295121E+02 0.20196653407E+02
 0.19824295121E+02 0.18776196924E+02 0.17247752067E+02 0.15526956052E+02 0.13920917060E+02
 0.12669520165E+02 0.11898469931E+02 0.11641201274E+02 0.11898469931E+02 0.12669520165E+02
 0.13920917060E+02 0.15526956052E+02 0.17247752067E+02 0.18776196924E+02 0.19824295121E+02
 0.33213919885E+02 0.31628322221E+02 0.27809056706E+02 0.23729048500E+02 0.20500548430E+02
 0.17540862036E+02 0.14963886946E+02 0.13064826896E+02 0.11898469931E+02 0.11360924258E+02
 0.11313613297E+02 0.11646772663E+02 0.12264496223E+02 0.13041719274E+02 0.13806894716E+02
 0.14369256192E+02 0.14576222353E+02 0.14369256192E+02 0.13806894716E+02 0.13041719274E+02
 0.12264496223E+02 0.11646772663E+02 0.11313613297E+02 0.11360924258E+02 0.11898469931E+02
 0.13064826896E+02 0.14963886946E+02 0.17540862036E+02 0.20500548430E+02 0.23729048500E+02
 0.27809056706E+02 0.31628322221E+02 0.76973605418E+02 0.71515345856E+02 0.57714527362E+02
 0.41680873229E+02 0.29267466938E+02 0.22443925745E+02 0.18302018635E+02 0.14963886946E+02
 0.12669520165E+02 0.11313613297E+02 0.10615344233E+02 0.10335051485E+02 0.10333651470E+02
 0.10514413044E+02 0.10767904550E+02 0.10977854043E+02 0.11058116714E+02 0.10977854043E+02
 0.10767904550E+02 0.10514413044E+02 0.10333651470E+02 0.10335051485E+02 0.10615344233E+02
 0.11313613297E+02 0.12669520165E+02 0.14963886946E+02 0.18302018635E+02 0.22443925745E+02
 0.29267466938E+02 0.41680873229E+02 0.57714527362E+02 0.71515345856E+02 0.17299367416E+03
 0.16059375842E+03 0.12832441955E+03 0.88322198855E+02 0.53640057519E+02 0.31967561405E+02
 0.22443925745E+02 0.17540862036E+02 0.13920917060E+02 0.11646772663E+02 0.10335051485E+02
 0.95790761096E+01 0.91607686413E+01 0.89658840207E+01 0.88847265030E+01 0.88393583662E+01
 0.88204203350E+01 0.88393583662E+01 0.88847265030E+01 0.89658840207E+01 0.91607686413E+01
 0.95790761096E+01 0.10335051485E+02 0.11646772663E+02 0.13920917060E+02 0.17540862036E+02
 0.22443925745E+02 0.31967561405E+02 0.53640057519E+02 0.88322198855E+02 0.12832441955E+03
 0.16059375842E+03 0.32693570035E+03 0.30479476564E+03 0.24633018129E+03 0.17135729050E+03
 0.10205853607E+03 0.53640057519E+02 0.29267466938E+02 0.20500548430E+02 0.15526956052E+02
 0.12264496223E+02 0.10333651470E+02 0.91607686413E+01 0.84503445657E+01 0.80538643730E+01
 0.77994292274E+01 0.75939442572E+01 0.75034652068E+01 0.75939442572E+01 0.77994292274E+01
 0.80538643730E+01 0.84503445657E+01 0.91607686413E+01 0.10333651470E+02 0.12264496223E+02
 0.15526956052E+02 0.20500548430E+02 0.29267466938E+02 0.53640057519E+02 0.10205853607E+03
 0.17135729050E+03 0.24633018129E+03 0.30479476564E+03 0.52293503864E+03 0.48924479277E+03
 0.39969227861E+03 0.28294366944E+03 0.17135729050E+03 0.88322198855E+02 0.41680873229E+02
 0.23729048500E+02 0.17247752067E+02 0.13041719274E+02 0.10514413044E+02 0.89658840207E+01
 0.80538643730E+01 0.75998870448E+01 0.73188228907E+01 0.70464177014E+01 0.69130976792E+01
 0.70464177014E+01 0.73188228907E+01 0.75998870448E+01 0.80538643730E+01 0.89658840207E+01
 0.10514413044E+02 0.13041719274E+02 0.17247752067E+02 0.23729048500E+02 0.41680873229E+02
 0.88322198855E+02 0.17135729050E+03 0.28294366944E+03 0.39969227861E+03 0.48924479277E+03
 0.72297265399E+03 0.67783363130E+03 0.55756796266E+03 0.39969227861E+03 0.24633018129E+03
 0.12832441955E+03 0.57714527362E+02 0.27809056706E+02 0.18776196924E+02 0.13806894716E+02
 0.10767904550E+02 0.88847265030E+01 0.77994292274E+01 0.73188228907E+01 0.70380445035E+01
 0.67114939117E+01 0.65376864288E+01 0.67114939117E+01 0.70380445035E+01 0.73188228907E+01
 0.77994292274E+01 0.88847265030E+01 0.10767904550E+02 0.13806894716E+02 0.18776196924E+02
 0.27809056706E+02 0.57714527362E+02 0.12832441955E+03 0.24633018129E+03 0.39969227861E+03
 0.55756796266E+03 0.67783363130E+03 0.87494806334E+03 0.82117359333E+03 0.67783363130E+03
 0.48924479277E+03 0.30479476564E+03 0.16059375842E+03 0.71515345856E+02 0.31628322221E+02
 0.19824295121E+02 0.14369256192E+02 0.10977854043E+02 0.88393583662E+01 0.75939442572E+01
 0.70464177014E+01 0.67114939117E+01 0.62975989144E+01 0.60744539093E+01 0.62975989144E+01
 0.67114939117E+01 0.70464177014E+01 0.75939442572E+01 0.88393583662E+01 0.10977854043E+02
 0.14369256192E+02 0.19824295121E+02 0.31628322221E+02 0.71515345856E+02 0.16059375842E+03
 0.30479476564E+03 0.48924479277E+03 0.67783363130E+03 0.82117359333E+03 0.87494806334E+03
 0.82117359333E+03 0.67783363130E+03 0.48924479277E+03 0.30479476564E+03 0.16059375842E+03
 0.71515345856E+02 0.31628322221E+02 0.19824295121E+02 0.14369256192E+02 0.10977854043E+02
 0.88393583662E+01 0.75939442572E+01 0.70464177014E+01 0.67114939117E+01 0.62975989144E+01
 0.60744539093E+01 0.62975989144E+01 0.67114939117E+01 0.70464177014E+01 0.75939442572E+01
 0.88393583662E+01 0.10977854043E+02 0.14369256192E+02 0.19824295121E+02 0.31628322221E+02
 0.71515345856E+02 0.16059375842E+03 0.30479476564E+03 0.48924479277E+03 0.67783363130E+03
 0.82117359333E+03 0.82117359333E+03 0.77045541855E+03 0.63527207004E+03 0.45751812960E+03
 0.28401554574E+03 0.14904188493E+03 0.66502645704E+02 0.30206286020E+02 0.19459943129E+02
 0.14168124095E+02 0.10898900754E+02 0.88540017535E+01 0.76747381104E+01 0.71657623912E+01
 0.68670148914E+01 0.64978964108E+01 0.62975989144E+01 0.64978964108E+01 0.68670148914E+01
 0.71657623912E+01 0.76747381104E+01 0.88540017535E+01 0.10898900754E+02 0.14168124095E+02
 0.19459943129E+02 0.30206286020E+02 0.66502645704E+02 0.14904188493E+03 0.28401554574E+03
 0.45751812960E+03 0.63527207004E+03 0.77045541855E+03 0.67783363130E+03 0.63527207004E+03
 0.52190639728E+03 0.37324004917E+03 0.22921114773E+03 0.11903765514E+03 0.53867889441E+02
 0.26788220076E+02 0.18435611255E+02 0.13622418403E+02 0.10693342976E+02 0.88902306850E+01
 0.78595329832E+01 0.74098743062E+01 0.71578171886E+01 0.68670148914E+01 0.67114939117E+01
 0.68670148914E+01 0.71578171886E+01 0.74098743062E+01 0.78595329832E+01 0.88902306850E+01
 0.10693342976E+02 0.13622418403E+02 0.18435611255E+02 0.26788220076E+02 0.53867889441E+02
 0.11903765514E+03 0.22921114773E+03 0.37324004917E+03 0.52190639728E+03 0.63527207004E+03
 0.48924479277E+03 0.45751812960E+03 0.37324004917E+03 0.26356035949E+03 0.15913115750E+03
 0.82009213113E+02 0.39288966681E+02 0.23126472429E+02 0.16947252681E+02 0.12881872402E+02
 0.10446969275E+02 0.89624723745E+01 0.80939023453E+01 0.76663333965E+01 0.74098743062E+01
 0.71657623912E+01 0.70464177014E+01 0.71657623912E+01 0.74098743062E+01 0.76663333965E+01
 0.80939023453E+01 0.89624723745E+01 0.10446969275E+02 0.12881872402E+02 0.16947252681E+02
 0.23126472429E+02 0.39288966681E+02 0.82009213113E+02 0.15913115750E+03 0.26356035949E+03
 0.37324004917E+03 0.45751812960E+03 0.30479476564E+03 0.28401554574E+03 0.22921114773E+03
 0.15913115750E+03 0.94716445919E+02 0.50171466924E+02 0.28118248697E+02 0.20099588879E+02
 0.15278918512E+02 0.12132249037E+02 0.10272819086E+02 0.91470719195E+01 0.84688245953E+01
 0.80939023453E+01 0.78595329832E+01 0.76747381104E+01 0.75939442572E+01 0.76747381104E+01
 0.78595329832E+01 0.80939023453E+01 0.84688245953E+01 0.91470719195E+01 0.10272819086E+02
 0.12132249037E+02 0.15278918512E+02 0.20099588879E+02 0.28118248697E+02 0.50171466924E+02
 0.94716445919E+02 0.15913115750E+03 0.22921114773E+03 0.28401554574E+03 0.16059375842E+03
 0.14904188493E+03 0.11903765514E+03 0.82009213113E+02 0.50171466924E+02 0.30545347584E+02
 0.21958746598E+02 0.17222660644E+02 0.13728665134E+02 0.11538917607E+02 0.10275550487E+02
 0.95481595692E+01 0.91470719195E+01 0.89624723745E+01 0.88902306850E+01 0.88540017535E+01
 0.88393583662E+01 0.88540017535E+01 0.88902306850E+01 0.89624723745E+01 0.91470719195E+01
 0.95481595692E+01 0.10275550487E+02 0.11538917607E+02 0.13728665134E+02 0.17222660644E+02
 0.21958746598E+02 0.30545347584E+02 0.50171466924E+02 0.82009213113E+02 0.11903765514E+03
 0.14904188493E+03 0.71515345856E+02 0.66502645704E+02 0.53867889441E+02 0.39288966681E+02
 0.28118248697E+02 0.21958746598E+02 0.17958365703E+02 0.14733161222E+02 0.12525378812E+02
 0.11220986083E+02 0.10547387125E+02 0.10275550487E+02 0.10272819086E+02 0.10446969275E+02
 0.10693342976E+02 0.10898900754E+02 0.10977854043E+02 0.10898900754E+02 0.10693342976E+02
 0.10446969275E+02 0.10272819086E+02 0.10275550487E+02 0.10547387125E+02 0.11220986083E+02
 0.12525378812E+02 0.14733161222E+02 0.17958365703E+02 0.21958746598E+02 0.28118248697E+02
 0.39288966681E+02 0.53867889441E+02 0.66502645704E+02 0.31628322221E+02 0.30206286020E+02
 0.26788220076E+02 0.23126472429E+02 0.20099588879E+02 0.17222660644E+02 0.14733161222E+02
 0.12906248428E+02 0.11786119189E+02 0.11268790482E+02 0.11220986083E+02 0.11538917607E+02
 0.12132249037E+02 0.12881872402E+02 0.13622418403E+02 0.14168124095E+02 0.14369256192E+02
 0.14168124095E+02 0.13622418403E+02 0.12881872402E+02 0.12132249037E+02 0.11538917607E+02
 0.11220986083E+02 0.11268790482E+02 0.11786119189E+02 0.12906248428E+02 0.14733161222E+02
 0.17222660644E+02 0.20099588879E+02 0.23126472429E+02 0.26788220076E+02 0.30206286020E+02
 0.19824295121E+02 0.19459943129E+02 0.18435611255E+02 0.16947252681E+02 0.15278918512E+02
 0.13728665134E+02 0.12525378812E+02 0.11786119189E+02 0.11539847990E+02 0.11786119189E+02
 0.12525378812E+02 0.13728665134E+02 0.15278918512E+02 0.16947252681E+02 0.18435611255E+02
 0.19459943129E+02 0.19824295121E+02 0.19459943129E+02 0.18435611255E+02 0.16947252681E+02
 0.15278918512E+02 0.13728665134E+02 0.12525378812E+02 0.11786119189E+02 0.11539847990E+02
 0.11786119189E+02 0.12525378812E+02 0.13728665134E+02 0.15278918512E+02 0.16947252681E+02
 0.18435611255E+02 0.19459943129E+02 0.14369256192E+02 0.14168124095E+02 0.13622418403E+02
 0.12881872402E+02 0.12132249037E+02 0.11538917607E+02 0.11220986083E+02 0.11268790482E+02
 0.11786119189E+02 0.12906248428E+02 0.14733161222E+02 0.17222660644E+02 0.20099588879E+02
 0.23126472429E+02 0.26788220076E+02 0.30206286020E+02 0.31628322221E+02 0.30206286020E+02
 0.26788220076E+02 0.23126472429E+02 0.20099588879E+02 0.17222660644E+02 0.14733161222E+02
 0.12906248428E+02 0.11786119189E+02 0.11268790482E+02 0.11220986083E+02 0.11538917607E+02
 0.12132249037E+02 0.12881872402E+02 0.13622418403E+02 0.14168124095E+02 0.10977854043E+02
 0.10898900754E+02 0.10693342976E+02 0.10446969275E+02 0.10272819086E+02 0.10275550487E+02
 0.10547387125E+02 0.11220986083E+02 0.12525378812E+02 0.14733161222E+02 0.17958365703E+02
 0.21958746598E+02 0.28118248697E+02 0.39288966681E+02 0.53867889441E+02 0.66502645704E+02
 0.71515345856E+02 0.66502645704E+02 0.53867889441E+02 0.39288966681E+02 0.28118248697E+02
 0.21958746598E+02 0.17958365703E+02 0.14733161222E+02 0.12525378812E+02 0.11220986083E+02
 0.10547387125E+02 0.10275550487E+02 0.10272819086E+02 0.10446969275E+02 0.10693342976E+02
 0.10898900754E+02 0.88393583662E+01 0.88540017535E+01 0.88902306850E+01 0.89624723745E+01
 0.91470719195E+01 0.95481595692E+01 0.10275550487E+02 0.11538917607E+02 0.13728665134E+02
 0.17222660644E+02 0.21958746598E+02 0.30545347584E+02 0.50171466924E+02 0.82009213113E+02
 0.11903765514E+03 0.14904188493E+03 0.16059375842E+03 0.14904188493E+03 0.11903765514E+03
 0.82009213113E+02 0.50171466924E+02 0.30545347584E+02 0.21958746598E+02 0.17222660644E+02
 0.13728665134E+02 0.11538917607E+02 0.10275550487E+02 0.95481595692E+01 0.91470719195E+01
 0.89624723745E+01 0.88902306850E+01 0.88540017535E+01 0.75939442572E+01 0.76747381104E+01
 0.78595329832E+01 0.80939023453E+01 0.84688245953E+01 0.91470719195E+01 0.10272819086E+02
 0.12132249037E+02 0.15278918512E+02 0.20099588879E+02 0.28118248697E+02 0.50171466924E+02
 0.94716445919E+02 0.15913115750E+03 0.22921114773E+03 0.28401554574E+03 0.30479476564E+03
 0.28401554574E+03 0.22921114773E+03 0.15913115750E+03 0.94716445919E+02 0.50171466924E+02
 0.28118248697E+02 0.20099588879E+02 0.15278918512E+02 0.12132249037E+02 0.10272819086E+02
 0.91470719195E+01 0.84688245953E+01 0.80939023453E+01 0.78595329832E+01 0.76747381104E+01
 0.70464177014E+01 0.71657623912E+01 0.74098743062E+01 0.76663333965E+01 0.80939023453E+01
 0.89624723745E+01 0.10446969275E+02 0.12881872402E+02 0.16947252681E+02 0.23126472429E+02
 0.39288966681E+02 0.82009213113E+02 0.15913115750E+03 0.26356035949E+03 0.37324004917E+03
 0.45751812960E+03 0.48924479277E+03 0.45751812960E+03 0.37324004917E+03 0.26356035949E+03
 0.15913115750E+03 0.82009213113E+02 0.39288966681E+02 0.23126472429E+02 0.16947252681E+02
 0.12881872402E+02 0.10446969275E+02 0.89624723745E+01 0.80939023453E+01 0.76663333965E+01
 0.74098743062E+01 0.71657623912E+01 0.67114939117E+01 0.68670148914E+01 0.71578171886E+01
 0.74098743062E+01 0.78595329832E+01 0.88902306850E+01 0.10693342976E+02 0.13622418403E+02
 0.18435611255E+02 0.26788220076E+02 0.53867889441E+02 0.11903765514E+03 0.22921114773E+03
 0.37324004917E+03 0.52190639728E+03 0.63527207004E+03 0.67783363130E+03 0.63527207004E+03
 0.52190639728E+03 0.37324004917E+03 0.22921114773E+03 0.11903765514E+03 0.53867889441E+02
 0.26788220076E+02 0.18435611255E+02 0.13622418403E+02 0.10693342976E+02 0.88902306850E+01
 0.78595329832E+01 0.74098743062E+01 0.71578171886E+01 0.68670148914E+01 0.62975989144E+01
 0.64978964108E+01 0.68670148914E+01 0.71657623912E+01 0.76747381104E+01 0.88540017535E+01
 0.10898900754E+02 0.14168124095E+02 0.19459943129E+02 0.30206286020E+02 0.66502645704E+02
 0.14904188493E+03 0.28401554574E+03 0.45751812960E+03 0.63527207004E+03 0.77045541855E+03
 0.82117359333E+03 0.77045541855E+03 0.63527207004E+03 0.45751812960E+03 0.28401554574E+03
 0.14904188493E+03 0.66502645704E+02 0.30206286020E+02 0.19459943129E+02 0.14168124095E+02
 0.10898900754E+02 0.88540017535E+01 0.76747381104E+01 0.71657623912E+01 0.68670148914E+01
 0.64978964108E+01 0.60744539093E+01 0.62975989144E+01 0.67114939117E+01 0.70464177014E+01
 0.75939442572E+01 0.88393583662E+01 0.10977854043E+02 0.14369256192E+02 0.19824295121E+02
 0.31628322221E+02 0.71515345856E+02 0.16059375842E+03 0.30479476564E+03 0.48924479277E+03
 0.67783363130E+03 0.82117359333E+03 0.87494806334E+03 0.82117359333E+03 0.67783363130E+03
 0.48924479277E+03 0.30479476564E+03 0.16059375842E+03 0.71515345856E+02 0.31628322221E+02
 0.19824295121E+02 0.14369256192E+02 0.10977854043E+02 0.88393583662E+01 0.75939442572E+01
 0.70464177014E+01 0.67114939117E+01 0.62975989144E+01 0.62975989144E+01 0.64978964108E+01
 0.68670148914E+01 0.71657623912E+01 0.76747381104E+01 0.88540017535E+01 0.10898900754E+02
 0.14168124095E+02 0.19459943129E+02 0.30206286020E+02 0.66502645704E+02 0.14904188493E+03
 0.28401554574E+03 0.45751812960E+03 0.63527207004E+03 0.77045541855E+03 0.82117359333E+03
 0.77045541855E+03 0.63527207004E+03 0.45751812960E+03 0.28401554574E+03 0.14904188493E+03
 0.66502645704E+02 0.30206286020E+02 0.19459943129E+02 0.14168124095E+02 0.10898900754E+02
 0.88540017535E+01 0.76747381104E+01 0.71657623912E+01 0.68670148914E+01 0.64978964108E+01
 0.67114939117E+01 0.68670148914E+01 0.71578171886E+01 0.74098743062E+01 0.78595329832E+01
 0.88902306850E+01 0.10693342976E+02 0.13622418403E+02 0.18435611255E+02 0.26788220076E+02
 0.53867889441E+02 0.11903765514E+03 0.22921114773E+03 0.37324004917E+03 0.52190639728E+03
 0.63527207004E+03 0.67783363130E+03 0.63527207004E+03 0.52190639728E+03 0.37324004917E+03
 0.22921114773E+03 0.11903765514E+03 0.53867889441E+02 0.26788220076E+02 0.18435611255E+02