   4   4   0   0
  0.1320827E+02  0.3752338E-09  0.3752338E-09  0.3752338E-09  0.5000000E-15
  1.000000000000000E-004
  CAR 
 unknown system                          
     27.29285064     -4.25692189  301      6.21025972      1.00000000
     -4.257  0.0000E+00  0.0000E+00
     -4.152  0.0000E+00  0.0000E+00
     -4.047  0.0000E+00  0.0000E+00
     -3.941 -0.9638E-32 -0.1014E-32
     -3.836 -0.4815E-28 -0.5065E-29
     -3.731 -0.1378E-24 -0.1450E-25
     -3.626 -0.2257E-21 -0.2375E-22
     -3.521 -0.2113E-18 -0.2225E-19
     -3.416 -0.1102E-15 -0.1161E-16
     -3.310 -0.3329E-13 -0.3512E-14
     -3.205 -0.5741E-11 -0.6072E-12
     -3.100 -0.5615E-09 -0.5966E-10
     -2.995 -0.3106E-07 -0.3326E-08
     -2.890 -0.9686E-06 -0.1052E-06
     -2.785 -0.1700E-04 -0.1893E-05
     -2.679 -0.1677E-03 -0.1953E-04
     -2.574 -0.9267E-03 -0.1170E-03
     -2.469 -0.2709E-02 -0.4019E-03
     -2.364 -0.2245E-02 -0.6380E-03
     -2.259  0.1366E-01  0.7987E-03
     -2.154  0.6330E-01  0.7456E-02
     -2.048  0.1403E+00  0.2221E-01
     -1.943  0.1924E+00  0.4244E-01
     -1.838  0.1787E+00  0.6123E-01
     -1.733  0.1638E+00  0.7846E-01
     -1.628  0.2594E+00  0.1057E+00
     -1.523  0.4132E+00  0.1492E+00
     -1.417  0.4159E+00  0.1929E+00
     -1.312  0.2443E+00  0.2186E+00
     -1.207  0.1642E+00  0.2359E+00
     -1.102  0.3161E+00  0.2691E+00
     -0.997  0.5086E+00  0.3226E+00
     -0.892  0.5620E+00  0.3817E+00
     -0.786  0.4888E+00  0.4331E+00
     -0.681  0.3709E+00  0.4721E+00
     -0.576  0.3917E+00  0.5133E+00
     -0.471  0.6078E+00  0.5773E+00
     -0.366  0.6509E+00  0.6457E+00
     -0.261  0.3753E+00  0.6852E+00
     -0.155  0.2903E+00  0.7157E+00
     -0.050  0.5997E+00  0.7788E+00
      0.055  0.8400E+00  0.8671E+00
      0.160  0.7726E+00  0.9484E+00
      0.265  0.6941E+00  0.1021E+01
      0.370  0.8425E+00  0.1110E+01
      0.476  0.8811E+00  0.1203E+01
      0.581  0.5476E+00  0.1260E+01
      0.686  0.3223E+00  0.1294E+01
      0.791  0.6162E+00  0.1359E+01
      0.896  0.1178E+01  0.1483E+01
      1.001  0.1397E+01  0.1630E+01
      1.107  0.1207E+01  0.1757E+01
      1.212  0.1077E+01  0.1870E+01
      1.317  0.1038E+01  0.1979E+01
      1.422  0.9936E+00  0.2084E+01
      1.527  0.1270E+01  0.2217E+01
      1.632  0.1991E+01  0.2426E+01
      1.738  0.2564E+01  0.2696E+01
      1.843  0.2667E+01  0.2977E+01
      1.948  0.3061E+01  0.3299E+01
      2.053  0.4118E+01  0.3732E+01
      2.158  0.5178E+01  0.4276E+01
      2.263  0.5648E+01  0.4870E+01
      2.369  0.5857E+01  0.5486E+01
      2.474  0.7089E+01  0.6232E+01
      2.579  0.9108E+01  0.7190E+01
      2.684  0.1034E+02  0.8277E+01
      2.789  0.1047E+02  0.9378E+01
      2.894  0.1003E+02  0.1043E+02
      3.000  0.9773E+01  0.1146E+02
      3.105  0.1012E+02  0.1252E+02
      3.210  0.1143E+02  0.1373E+02
      3.315  0.1357E+02  0.1515E+02
      3.420  0.1521E+02  0.1675E+02
      3.525  0.1688E+02  0.1853E+02
      3.631  0.1943E+02  0.2057E+02
      3.736  0.2005E+02  0.2268E+02
      3.841  0.1700E+02  0.2447E+02
      3.946  0.1356E+02  0.2589E+02
      4.051  0.1347E+02  0.2731E+02
      4.156  0.1584E+02  0.2898E+02
      4.262  0.1709E+02  0.3077E+02
      4.367  0.1622E+02  0.3248E+02
      4.472  0.1573E+02  0.3414E+02
      4.577  0.1797E+02  0.3602E+02
      4.682  0.2141E+02  0.3828E+02
      4.787  0.2023E+02  0.4040E+02
      4.893  0.1263E+02  0.4173E+02
      4.998  0.4866E+01  0.4224E+02
      5.103  0.1259E+01  0.4238E+02
      5.208  0.6965E+00  0.4245E+02
      5.313  0.1382E+01  0.4259E+02
      5.418  0.2004E+01  0.4281E+02
      5.524  0.1788E+01  0.4299E+02
      5.629  0.1051E+01  0.4310E+02
      5.734  0.5359E+00  0.4316E+02
      5.839  0.1181E+01  0.4328E+02
      5.944  0.2423E+01  0.4354E+02
      6.049  0.2364E+01  0.4379E+02
      6.155  0.1456E+01  0.4394E+02
      6.260  0.9971E+00  0.4405E+02
      6.365  0.7825E+00  0.4413E+02
      6.470  0.6648E+00  0.4420E+02
      6.575  0.7336E+00  0.4428E+02
      6.680  0.1081E+01  0.4439E+02
      6.785  0.1524E+01  0.4455E+02
      6.891  0.1614E+01  0.4472E+02
      6.996  0.1636E+01  0.4489E+02
      7.101  0.1704E+01  0.4507E+02
      7.206  0.1317E+01  0.4521E+02
      7.311  0.8014E+00  0.4529E+02
      7.416  0.6997E+00  0.4537E+02
      7.522  0.8469E+00  0.4546E+02
      7.627  0.7514E+00  0.4553E+02
      7.732  0.5034E+00  0.4559E+02
      7.837  0.8961E+00  0.4568E+02
      7.942  0.1671E+01  0.4586E+02
      8.047  0.1675E+01  0.4603E+02
      8.153  0.1143E+01  0.4615E+02
      8.258  0.1021E+01  0.4626E+02
      8.363  0.1198E+01  0.4639E+02
      8.468  0.1283E+01  0.4652E+02
      8.573  0.1117E+01  0.4664E+02
      8.678  0.6463E+00  0.4671E+02
      8.784  0.2827E+00  0.4674E+02
      8.889  0.2990E+00  0.4677E+02
      8.994  0.4901E+00  0.4682E+02
      9.099  0.7969E+00  0.4690E+02
      9.204  0.1126E+01  0.4702E+02
      9.309  0.1025E+01  0.4713E+02
      9.415  0.7875E+00  0.4721E+02
      9.520  0.1089E+01  0.4733E+02
      9.625  0.1401E+01  0.4748E+02
      9.730  0.1201E+01  0.4760E+02
      9.835  0.8876E+00  0.4769E+02
      9.940  0.7335E+00  0.4777E+02
     10.046  0.9072E+00  0.4787E+02
     10.151  0.1402E+01  0.4801E+02
     10.256  0.1672E+01  0.4819E+02
     10.361  0.1584E+01  0.4836E+02
     10.466  0.1292E+01  0.4849E+02
     10.571  0.7824E+00  0.4858E+02
     10.677  0.5471E+00  0.4863E+02
     10.782  0.1052E+01  0.4874E+02
     10.887  0.1737E+01  0.4893E+02
     10.992  0.1742E+01  0.4911E+02
     11.097  0.1169E+01  0.4923E+02
     11.202  0.5849E+00  0.4929E+02
     11.308  0.3703E+00  0.4933E+02
     11.413  0.8759E+00  0.4942E+02
     11.518  0.1903E+01  0.4963E+02
     11.623  0.2180E+01  0.4985E+02
     11.728  0.1333E+01  0.4999E+02
     11.833  0.7772E+00  0.5008E+02
     11.939  0.9168E+00  0.5017E+02
     12.044  0.9402E+00  0.5027E+02
     12.149  0.7387E+00  0.5035E+02
     12.254  0.6482E+00  0.5042E+02
     12.359  0.5712E+00  0.5048E+02
     12.464  0.4673E+00  0.5053E+02
     12.570  0.6482E+00  0.5059E+02
     12.675  0.1230E+01  0.5072E+02
     12.780  0.1798E+01  0.5091E+02
     12.885  0.1993E+01  0.5112E+02
     12.990  0.1859E+01  0.5132E+02
     13.095  0.1511E+01  0.5148E+02
     13.201  0.1344E+01  0.5162E+02
     13.306  0.1371E+01  0.5176E+02
     13.411  0.1168E+01  0.5189E+02
     13.516  0.8781E+00  0.5198E+02
     13.621  0.8514E+00  0.5207E+02
     13.726  0.1027E+01  0.5218E+02
     13.832  0.1203E+01  0.5230E+02
     13.937  0.1266E+01  0.5244E+02
     14.042  0.1398E+01  0.5258E+02
     14.147  0.1677E+01  0.5276E+02
     14.252  0.1753E+01  0.5294E+02
     14.357  0.1769E+01  0.5313E+02
     14.463  0.2043E+01  0.5334E+02
     14.568  0.2193E+01  0.5357E+02
     14.673  0.1824E+01  0.5377E+02
     14.778  0.1310E+01  0.5390E+02
     14.883  0.1405E+01  0.5405E+02
     14.988  0.1934E+01  0.5426E+02
     15.094  0.1827E+01  0.5445E+02
     15.199  0.1042E+01  0.5456E+02
     15.304  0.7649E+00  0.5464E+02
     15.409  0.1169E+01  0.5476E+02
     15.514  0.1410E+01  0.5491E+02
     15.619  0.1439E+01  0.5506E+02
     15.725  0.1550E+01  0.5522E+02
     15.830  0.1442E+01  0.5537E+02
     15.935  0.1038E+01  0.5548E+02
     16.040  0.8875E+00  0.5558E+02
     16.145  0.1323E+01  0.5572E+02
     16.250  0.2251E+01  0.5595E+02
     16.356  0.2703E+01  0.5624E+02
     16.461  0.1897E+01  0.5644E+02
     16.566  0.1288E+01  0.5657E+02
     16.671  0.2053E+01  0.5679E+02
     16.776  0.2567E+01  0.5706E+02
     16.881  0.1743E+01  0.5724E+02
     16.987  0.8164E+00  0.5733E+02
     17.092  0.6621E+00  0.5740E+02
     17.197  0.9243E+00  0.5749E+02
     17.302  0.1192E+01  0.5762E+02
     17.407  0.1674E+01  0.5780E+02
     17.512  0.2190E+01  0.5803E+02
     17.618  0.1924E+01  0.5823E+02
     17.723  0.1212E+01  0.5836E+02
     17.828  0.1178E+01  0.5848E+02
     17.933  0.1534E+01  0.5864E+02
     18.038  0.1225E+01  0.5877E+02
     18.143  0.6213E+00  0.5883E+02
     18.249  0.5730E+00  0.5889E+02
     18.354  0.8046E+00  0.5898E+02
     18.459  0.7504E+00  0.5906E+02
     18.564  0.5573E+00  0.5912E+02
     18.669  0.4061E+00  0.5916E+02
     18.774  0.2777E+00  0.5919E+02
     18.880  0.3695E+00  0.5923E+02
     18.985  0.5163E+00  0.5928E+02
     19.090  0.3380E+00  0.5932E+02
     19.195  0.6118E-01  0.5932E+02
     19.300 -0.2793E-01  0.5932E+02
     19.405 -0.2079E-01  0.5932E+02
     19.511 -0.1963E-01  0.5932E+02
     19.616  0.8074E-02  0.5932E+02
     19.721  0.1412E+00  0.5933E+02
     19.826  0.3703E+00  0.5937E+02
     19.931  0.5801E+00  0.5943E+02
     20.036  0.5525E+00  0.5949E+02
     20.142  0.2506E+00  0.5952E+02
     20.247  0.6249E-01  0.5952E+02
     20.352  0.1638E+00  0.5954E+02
     20.457  0.2501E+00  0.5957E+02
     20.562  0.1299E+00  0.5958E+02
     20.667  0.2061E-01  0.5958E+02
     20.773  0.1300E+00  0.5960E+02
     20.878  0.3460E+00  0.5963E+02
     20.983  0.3771E+00  0.5967E+02
     21.088  0.1901E+00  0.5969E+02
     21.193  0.2492E-01  0.5970E+02
     21.298 -0.2083E-01  0.5969E+02
     21.404 -0.2810E-01  0.5969E+02
     21.509 -0.1848E-01  0.5969E+02
     21.614  0.1387E+00  0.5970E+02
     21.719  0.4442E+00  0.5975E+02
     21.824  0.5092E+00  0.5980E+02
     21.929  0.2298E+00  0.5983E+02
     22.035  0.6978E-02  0.5983E+02
     22.140 -0.2963E-01  0.5982E+02
     22.245 -0.2094E-01  0.5982E+02
     22.350  0.3017E-02  0.5982E+02
     22.455  0.1158E+00  0.5984E+02
     22.560  0.2551E+00  0.5986E+02
     22.666  0.2213E+00  0.5989E+02
     22.771  0.6860E-01  0.5989E+02
     22.876 -0.8684E-02  0.5989E+02
     22.981 -0.1027E-01  0.5989E+02
     23.086 -0.4326E-02  0.5989E+02
     23.191 -0.9468E-02  0.5989E+02
     23.297 -0.1061E-01  0.5989E+02
     23.402  0.5742E-01  0.5989E+02
     23.507  0.2095E+00  0.5992E+02
     23.612  0.2608E+00  0.5994E+02
     23.717  0.1298E+00  0.5996E+02
     23.822  0.9339E-02  0.5996E+02
     23.928 -0.1328E-01  0.5996E+02
     24.033 -0.4721E-02  0.5996E+02
     24.138 -0.6765E-03  0.5996E+02
     24.243 -0.4884E-04  0.5996E+02
     24.348 -0.1894E-05  0.5996E+02
     24.453 -0.5085E-07  0.5996E+02
     24.559 -0.5511E-06  0.5996E+02
     24.664 -0.1630E-04  0.5996E+02
     24.769 -0.2613E-03  0.5996E+02
     24.874 -0.2155E-02  0.5996E+02
     24.979 -0.7808E-02  0.5996E+02
     25.084 -0.1858E-02  0.5995E+02
     25.190  0.6257E-01  0.5996E+02
     25.295  0.1615E+00  0.5998E+02
     25.400  0.1590E+00  0.6000E+02
     25.505  0.5910E-01  0.6000E+02
     25.610 -0.2783E-02  0.6000E+02
     25.715 -0.7603E-02  0.6000E+02
     25.821 -0.2026E-02  0.6000E+02
     25.926 -0.2396E-03  0.6000E+02
     26.031 -0.1462E-04  0.6000E+02
     26.136 -0.4836E-06  0.6000E+02
     26.241 -0.8870E-08  0.6000E+02
     26.346 -0.9129E-10  0.6000E+02
     26.452 -0.5311E-12  0.6000E+02
     26.557 -0.1761E-14  0.6000E+02
     26.662  0.0000E+00  0.6000E+02
     26.767  0.0000E+00  0.6000E+02
     26.872  0.0000E+00  0.6000E+02
     26.977  0.0000E+00  0.6000E+02
     27.083  0.0000E+00  0.6000E+02
     27.188  0.0000E+00  0.6000E+02
     27.293  0.0000E+00  0.6000E+02
