    4    4    1    1
  0.1320827E+02  0.3752338E-09  0.3752338E-09  0.3752338E-09  0.5000000E-15
  1.000000000000000E-004
  CAR 
 unknown system                          
     44     35     30
 
  0.0000000E+00  0.0000000E+00  0.0000000E+00  0.1371742E-02
    1       -2.256922   1.000000
    2        2.013822   1.000000
    3        2.013822   1.000000
    4        2.013822   1.000000
    5        2.402138   1.000000
    6        2.402138   1.000000
    7        2.402138   1.000000
    8        3.571487   1.000000
    9        3.571487   1.000000
   10        3.571487   1.000000
   11        4.265954   1.000000
   12        4.265954   1.000000
   13        4.729518   1.000000
   14        4.729518   1.000000
   15        4.729518   1.000000
   16        4.860663   1.000000
   17        4.860663   1.000000
   18        4.860663   1.000000
   19        4.860663   1.000000
   20        4.860663   1.000000
   21        4.860663   1.000000
   22        7.857631  -0.000000
   23        7.857631  -0.000000
   24        7.857631  -0.000000
   25       12.641015   0.000000
   26       12.641015   0.000000
   27       12.641015   0.000000
   28       18.516567   0.000000
   29       18.516567   0.000000
   30       18.516567   0.000000
 
  0.1111111E+00  0.0000000E+00  0.0000000E+00  0.8230453E-02
    1       -2.118459   1.000000
    2        2.007050   1.000000
    3        2.074257   1.000000
    4        2.074257   1.000000
    5        2.435708   1.000000
    6        2.437825   1.000000
    7        2.437825   1.000000
    8        3.534632   1.000000
    9        3.601572   1.000000
   10        3.601572   1.000000
   11        4.232640   1.000000
   12        4.279639   1.000000
   13        4.660251   1.000000
   14        4.660251   1.000000
   15        4.685982   1.000000
   16        4.685982   1.000000
   17        4.714839   1.000000
   18        4.809638   1.000000
   19        4.809638   1.000000
   20        4.860610   1.000000
   21        4.860610   1.000000
   22        7.005452  -0.000000
   23        8.184704  -0.000000
   24        8.184704  -0.000000
   25       12.698410   0.000000
   26       12.698410   0.000000
   27       13.778366   0.000000
   28       17.648911   0.000000
   29       17.648911   0.000000
   30       17.906109   0.000000
 
  0.2222222E+00  0.0000000E+00  0.0000000E+00  0.8230453E-02
    1       -1.707849   1.000000
    2        1.932184   1.000000
    3        2.240429   1.000000
    4        2.240429   1.000000
    5        2.533478   1.000000
    6        2.546581   1.000000
    7        2.546581   1.000000
    8        3.429066   1.000000
    9        3.690520   1.000000
   10        3.690520   1.000000
   11        4.139709   1.000000
   12        4.226194   1.000000
   13        4.226194   1.000000
   14        4.319148   1.000000
   15        4.564245   1.000000
   16        4.564245   1.000000
   17        4.668759   1.000000
   18        4.668759   1.000000
   19        4.673826   1.000000
   20        4.860761   1.000000
   21        4.860761   1.000000
   22        5.543459   1.000013
   23        8.997897  -0.000000
   24        8.997897  -0.000000
   25       12.879734   0.000000
   26       12.879734   0.000000
   27       16.047614   0.000000
   28       16.047614   0.000000
   29       16.140974   0.000000
   30       16.687814   0.000000
 
  0.3333333E+00  0.0000000E+00  0.0000000E+00  0.8230453E-02
    1       -1.042396   1.000000
    2        1.591676   1.000000
    3        2.460242   1.000000
    4        2.460242   1.000000
    5        2.684400   1.000000
    6        2.731332   1.000000
    7        2.731332   1.000000
    8        3.268946   1.000000
    9        3.758568   1.000000
   10        3.758568   1.000000
   11        3.833734   1.000000
   12        3.833734   1.000000
   13        4.011349   1.000000
   14        4.379876   1.000000
   15        4.395179   1.000000
   16        4.395179   1.000000
   17        4.409211   1.000000
   18        4.467506   1.000000
   19        4.467506   1.000000
   20        4.611348   1.000000
   21        4.860981   1.000000
   22        4.860981   1.000000
   23       10.092644  -0.000000
   24       10.092644  -0.000000
   25       13.211156   0.000000
   26       13.211156   0.000000
   27       14.390288   0.000000
   28       14.390288   0.000000
   29       15.479181   0.000000
   30       15.479181   0.000000
 
  0.4444444E+00  0.0000000E+00  0.0000000E+00  0.8230453E-02
    1       -0.165283   1.000000
    2        0.807965   1.000000
    3        2.631696   1.000000
    4        2.631696   1.000000
    5        2.872236   1.000000
    6        2.994837   1.000000
    7        2.994837   1.000000
    8        3.075204   1.000000
    9        3.339348   1.000000
   10        3.339348   1.000000
   11        3.901277   1.000000
   12        3.937136   1.000000
   13        4.022584   1.000000
   14        4.022584   1.000000
   15        4.241662   1.000000
   16        4.241662   1.000000
   17        4.256600   1.000000
   18        4.256600   1.000000
   19        4.454872   1.000000
   20        4.535259   1.000000
   21        4.861064   1.000000
   22        4.861064   1.000000
   23       11.379287  -0.000000
   24       11.379287  -0.000000
   25       12.820213   0.000000
   26       12.820213   0.000000
   27       13.731267   0.000000
   28       13.731267   0.000000
   29       14.480632   0.000000
   30       14.480632   0.000000
 
  0.1111111E+00  0.1111111E+00  0.0000000E+00  0.1646091E-01
    1       -1.980938   1.000000
    2        2.070417   1.000000
    3        2.070417   1.000000
    4        2.132018   1.000000
    5        2.470453   1.000000
    6        2.470453   1.000000
    7        2.471701   1.000000
    8        3.515180   1.000000
    9        3.615584   1.000000
   10        3.626191   1.000000
   11        4.224237   1.000000
   12        4.273910   1.000000
   13        4.524150   1.000000
   14        4.564743   1.000000
   15        4.564743   1.000000
   16        4.646031   1.000000
   17        4.700094   1.000000
   18        4.700094   1.000000
   19        4.809530   1.000000
   20        4.809530   1.000000
   21        4.827468   1.000000
   22        7.321519  -0.000000
   23        7.321519  -0.000000
   24        8.481197  -0.000000
   25       12.757840   0.000000
   26       13.862857   0.000000
   27       13.862857   0.000000
   28       16.031460   0.000000
   29       17.829681   0.000000
   30       17.829681   0.000000
 
  0.2222222E+00  0.1111111E+00  0.0000000E+00  0.3292181E-01
    1       -1.573304   1.000000
    2        2.005046   1.000000
    3        2.245150   1.000000
    4        2.290578   1.000000
    5        2.564548   1.000000
    6        2.573473   1.000000
    7        2.575550   1.000000
    8        3.422415   1.000000
    9        3.695552   1.000000
   10        3.696314   1.000000
   11        4.128532   1.000000
   12        4.148413   1.000000
   13        4.156883   1.000000
   14        4.315083   1.000000
   15        4.349083   1.000000
   16        4.532752   1.000000
   17        4.574140   1.000000
   18        4.662533   1.000000
   19        4.668070   1.000000
   20        4.809056   1.000000
   21        4.810020   1.000000
   22        5.910353   1.027672
   23        8.058655  -0.000000
   24        9.246116  -0.000000
   25       12.943687   0.000000
   26       14.125927   0.000000
   27       14.301065   0.000000
   28       16.217248   0.000000
   29       16.244051   0.000000
   30       16.844470   0.000000
 
  0.3333333E+00  0.1111111E+00  0.0000000E+00  0.3292181E-01
    1       -0.913396   1.000000
    2        1.680139   1.000000
    3        2.478885   1.000000
    4        2.504675   1.000000
    5        2.710198   1.000000
    6        2.739030   1.000000
    7        2.753584   1.000000
    8        3.270992   1.000000
    9        3.672275   1.000000
   10        3.729621   1.000000
   11        3.784409   1.000000
   12        3.835802   1.000000
   13        4.008143   1.000000
   14        4.060643   1.000000
   15        4.374929   1.000000
   16        4.390837   1.000000
   17        4.405850   1.000000
   18        4.466706   1.000000
   19        4.557867   1.000000
   20        4.806428   1.000000
   21        4.808190   1.000000
   22        4.947129   1.000000
   23        9.003708  -0.000000
   24       10.305793  -0.000000
   25       12.707881   0.000000
   26       13.302311   0.000000
   27       14.559950   0.000000
   28       14.591883   0.000000
   29       15.615152   0.000000
   30       17.360823   0.000000
 
  0.4444444E+00  0.1111111E+00  0.0000000E+00  0.3292181E-01
    1       -0.045459   1.000000
    2        0.913749   1.000000
    3        2.669186   1.000000
    4        2.680422   1.000000
    5        2.890885   1.000000
    6        2.963216   1.000000
    7        3.006819   1.000000
    8        3.085771   1.000000
    9        3.274200   1.000000
   10        3.335352   1.000000
   11        3.780258   1.000000
   12        3.782018   1.000000
   13        4.023032   1.000000
   14        4.120043   1.000000
   15        4.241259   1.000000
   16        4.249393   1.000000
   17        4.262175   1.000000
   18        4.332800   1.000000
   19        4.489146   1.000000
   20        4.618111   1.000000
   21        4.806433   1.000000
   22        4.807239   1.000000
   23       10.091614  -0.000000
   24       11.320819  -0.000000
   25       11.569940  -0.000000
   26       12.997037   0.000000
   27       13.829295   0.000000
   28       14.594081   0.000000
   29       15.292781   0.000000
   30       16.228703   0.000000
 
  0.2222222E+00  0.2222222E+00  0.0000000E+00  0.1646091E-01
    1       -1.175196   1.000000
    2        2.207140   1.000000
    3        2.207140   1.000000
    4        2.426631   1.000000
    5        2.654825   1.000000
    6        2.658802   1.000000
    7        2.658802   1.000000
    8        3.375051   1.000000
    9        3.714733   1.000000
   10        3.740998   1.000000
   11        3.891340   1.000000
   12        3.891340   1.000000
   13        3.944146   1.000000
   14        4.123081   1.000000
   15        4.357903   1.000000
   16        4.441517   1.000000
   17        4.554035   1.000000
   18        4.554035   1.000000
   19        4.666467   1.000000
   20        4.666467   1.000000
   21        4.730323   1.000000
   22        6.594991  -0.010151
   23        6.594991  -0.010151
   24        9.921830  -0.000000
   25       12.443754   0.000000
   26       13.174150   0.000000
   27       16.557897   0.000000
   28       16.557897   0.000000
   29       16.711328   0.000000
   30       16.711328   0.000000
 
  0.3333333E+00  0.2222222E+00  0.0000000E+00  0.3292181E-01
    1       -0.533387   1.000000
    2        1.927035   1.000000
    3        2.485269   1.000000
    4        2.613844   1.000000
    5        2.776108   1.000000
    6        2.787127   1.000000
    7        2.817447   1.000000
    8        3.264669   1.000000
    9        3.475380   1.000000
   10        3.637460   1.000000
   11        3.640177   1.000000
   12        3.722058   1.000000
   13        3.856700   1.000000
   14        4.073169   1.000000
   15        4.311538   1.000000
   16        4.395875   1.000000
   17        4.459033   1.000000
   18        4.465200   1.000000
   19        4.478641   1.000000
   20        4.664594   1.000000
   21        4.685948   1.000000
   22        5.502943   1.000003
   23        7.410687  -0.000000
   24       10.849659  -0.000000
   25       10.906010  -0.000000
   26       13.542346   0.000000
   27       15.053853   0.000000
   28       16.013653   0.000000
   29       17.094577   0.000000
   30       17.493272   0.000000
 
  0.4444444E+00  0.2222222E+00  0.0000000E+00  0.3292181E-01
    1        0.303795   1.000000
    2        1.215421   1.000000
    3        2.738913   1.000000
    4        2.815100   1.000000
    5        2.874462   1.000000
    6        2.944875   1.000000
    7        3.039646   1.000000
    8        3.112043   1.000000
    9        3.129128   1.000000
   10        3.319634   1.000000
   11        3.572869   1.000000
   12        3.654280   1.000000
   13        4.030976   1.000000
   14        4.126939   1.000000
   15        4.214430   1.000000
   16        4.242383   1.000000
   17        4.249464   1.000000
   18        4.289496   1.000000
   19        4.654892   1.000000
   20        4.664206   1.000000
   21        4.668865   1.000000
   22        4.931928   1.000000
   23        8.362789  -0.000000
   24        9.494387  -0.000000
   25       12.116918   0.000000
   26       13.509439   0.000000
   27       14.121560   0.000000
   28       14.940174   0.000000
   29       17.854681   0.000000
   30       18.520031   0.000000
 
  0.3333333E+00  0.3333333E+00  0.0000000E+00  0.1646091E-01
    1        0.072666   1.000000
    2        2.271001   1.000000
    3        2.271001   1.000000
    4        2.707210   1.000000
    5        2.879998   1.000000
    6        2.913477   1.000000
    7        2.913477   1.000000
    8        3.223242   1.000000
    9        3.345852   1.000000
   10        3.345852   1.000000
   11        3.480269   1.000000
   12        3.670080   1.000000
   13        3.928211   1.000000
   14        4.020770   1.000000
   15        4.211795   1.000000
   16        4.313489   1.000000
   17        4.313489   1.000000
   18        4.466132   1.000000
   19        4.466132   1.000000
   20        4.574930   1.000000
   21        4.667582   1.000000
   22        6.148913   0.746537
   23        6.148913   0.746537
   24        9.252797  -0.000000
   25       11.814702   0.000000
   26       13.974735   0.000000
   27       15.835556   0.000000
   28       15.835556   0.000000
   29       16.673689   0.000000
   30       16.673689   0.000000
 
  0.4444444E+00  0.3333333E+00  0.0000000E+00  0.3292181E-01
    1        0.846313   1.000000
    2        1.658465   1.000000
    3        2.591122   1.000000
    4        2.732140   1.000000
    5        3.003599   1.000000
    6        3.027353   1.000000
    7        3.083707   1.000000
    8        3.135021   1.000000
    9        3.138553   1.000000
   10        3.282415   1.000000
   11        3.418118   1.000000
   12        3.567150   1.000000
   13        4.037445   1.000000
   14        4.065474   1.000000
   15        4.134050   1.000000
   16        4.165066   1.000000
   17        4.174786   1.000000
   18        4.254334   1.000000
   19        4.476430   1.000000
   20        4.507455   1.000000
   21        4.939109   1.000000
   22        5.368336   1.000000
   23        6.940065  -0.000002
   24        7.954338  -0.000000
   25       12.965448   0.000000
   26       14.315348   0.000000
   27       14.624817   0.000000
   28       15.520863   0.000000
   29       16.864730   0.000000
   30       17.580658   0.000000
 
  0.4444444E+00  0.4444444E+00  0.0000000E+00  0.1646091E-01
    1        1.502291   1.000000
    2        2.133282   1.000000
    3        2.133282   1.000000
    4        2.504061   1.000000
    5        3.124731   1.000000
    6        3.124731   1.000000
    7        3.145835   1.000000
    8        3.186527   1.000000
    9        3.215787   1.000000
   10        3.311377   1.000000
   11        3.311377   1.000000
   12        3.474344   1.000000
   13        3.980598   1.000000
   14        4.043254   1.000000
   15        4.050486   1.000000
   16        4.050486   1.000000
   17        4.149657   1.000000
   18        4.292341   1.000000
   19        4.292341   1.000000
   20        4.374427   1.000000
   21        5.334122   1.000000
   22        5.946688   1.034284
   23        5.946688   1.034284
   24        6.775086  -0.000241
   25       14.062687   0.000000
   26       15.359129   0.000000
   27       15.370936   0.000000
   28       15.370936   0.000000
   29       16.342848   0.000000
   30       16.342848   0.000000
 
  0.1111111E+00  0.1111111E+00  0.1111111E+00  0.1097394E-01
    1       -1.844453   1.000000
    2        2.130156   1.000000
    3        2.130156   1.000000
    4        2.130156   1.000000
    5        2.503314   1.000000
    6        2.503314   1.000000
    7        2.503314   1.000000
    8        3.498513   1.000000
    9        3.636724   1.000000
   10        3.636724   1.000000
   11        4.244818   1.000000
   12        4.244818   1.000000
   13        4.446056   1.000000
   14        4.446056   1.000000
   15        4.446056   1.000000
   16        4.598790   1.000000
   17        4.598790   1.000000
   18        4.598790   1.000000
   19        4.815574   1.000000
   20        4.815574   1.000000
   21        4.815574   1.000000
   22        7.595027  -0.000000
   23        7.595027  -0.000000
   24        7.595027  -0.000000
   25       13.949641   0.000000
   26       13.949641   0.000000
   27       13.949641   0.000000
   28       16.200136   0.000000
   29       16.200136   0.000000
   30       16.200136   0.000000
 
  0.2222222E+00  0.1111111E+00  0.1111111E+00  0.3292181E-01
    1       -1.440215   1.000000
    2        2.071719   1.000000
    3        2.294372   1.000000
    4        2.294372   1.000000
    5        2.595243   1.000000
    6        2.602322   1.000000
    7        2.602322   1.000000
    8        3.417573   1.000000
    9        3.696390   1.000000
   10        3.700307   1.000000
   11        4.070284   1.000000
   12        4.070284   1.000000
   13        4.170687   1.000000
   14        4.212083   1.000000
   15        4.303256   1.000000
   16        4.474831   1.000000
   17        4.500093   1.000000
   18        4.500093   1.000000
   19        4.773736   1.000000
   20        4.796489   1.000000
   21        4.796489   1.000000
   22        6.170168   0.665921
   23        8.272054  -0.000000
   24        8.272054  -0.000000
   25       14.219136   0.000000
   26       14.219136   0.000000
   27       14.463235   0.000000
   28       14.463235   0.000000
   29       16.348106   0.000000
   30       16.692020   0.000000
 
  0.3333333E+00  0.1111111E+00  0.1111111E+00  0.3292181E-01
    1       -0.786710   1.000000
    2        1.759878   1.000000
    3        2.517721   1.000000
    4        2.517721   1.000000
    5        2.737399   1.000000
    6        2.760378   1.000000
    7        2.760378   1.000000
    8        3.276426   1.000000
    9        3.657590   1.000000
   10        3.657590   1.000000
   11        3.766465   1.000000
   12        3.806122   1.000000
   13        3.880976   1.000000
   14        4.120028   1.000000
   15        4.306085   1.000000
   16        4.361250   1.000000
   17        4.361250   1.000000
   18        4.390834   1.000000
   19        4.699919   1.000000
   20        4.779477   1.000000
   21        4.779477   1.000000
   22        5.122714   1.000000
   23        9.173483  -0.000000
   24        9.173483  -0.000000
   25       12.889561   0.000000
   26       12.889561   0.000000
   27       14.696120   0.000000
   28       14.696120   0.000000
   29       17.471716   0.000000
   30       17.506700   0.000000
 
  0.4444444E+00  0.1111111E+00  0.1111111E+00  0.3292181E-01
    1        0.070381   1.000000
    2        1.012739   1.000000
    3        2.716275   1.000000
    4        2.716275   1.000000
    5        2.912839   1.000000
    6        2.941196   1.000000
    7        2.941196   1.000000
    8        3.100153   1.000000
    9        3.313120   1.000000
   10        3.313120   1.000000
   11        3.707463   1.000000
   12        3.735647   1.000000
   13        3.950236   1.000000
   14        4.122891   1.000000
   15        4.237639   1.000000
   16        4.237639   1.000000
   17        4.245098   1.000000
   18        4.495308   1.000000
   19        4.557748   1.000000
   20        4.602919   1.000000
   21        4.772009   1.000000
   22        4.772009   1.000000
   23       10.207986  -0.000000
   24       10.207986  -0.000000
   25       11.529495  -0.000000
   26       11.529495  -0.000000
   27       15.404795   0.000000
   28       15.404795   0.000000
   29       16.359982   0.000000
   30       16.359982   0.000000
 
  0.2222222E+00  0.2222222E+00  0.1111111E+00  0.3292181E-01
    1       -1.046886   1.000000
    2        2.253190   1.000000
    3        2.253190   1.000000
    4        2.425130   1.000000
    5        2.684564   1.000000
    6        2.688117   1.000000
    7        2.688117   1.000000
    8        3.378972   1.000000
    9        3.712109   1.000000
   10        3.726350   1.000000
   11        3.849024   1.000000
   12        3.849024   1.000000
   13        3.878306   1.000000
   14        4.173262   1.000000
   15        4.336424   1.000000
   16        4.370080   1.000000
   17        4.390301   1.000000
   18        4.390301   1.000000
   19        4.757034   1.000000
   20        4.757034   1.000000
   21        4.757532   1.000000
   22        6.766507  -0.000301
   23        6.766507  -0.000301
   24        8.838049  -0.000000
   25       12.637588   0.000000
   26       14.508814   0.000000
   27       14.936445   0.000000
   28       14.936445   0.000000
   29       16.665798   0.000000
   30       16.665798   0.000000
 
  0.3333333E+00  0.2222222E+00  0.1111111E+00  0.6584362E-01
    1       -0.414429   1.000000
    2        1.976492   1.000000
    3        2.495646   1.000000
    4        2.597344   1.000000
    5        2.806454   1.000000
    6        2.821613   1.000000
    7        2.835642   1.000000
    8        3.281741   1.000000
    9        3.494993   1.000000
   10        3.605072   1.000000
   11        3.617481   1.000000
   12        3.716482   1.000000
   13        3.796986   1.000000
   14        4.164910   1.000000
   15        4.225113   1.000000
   16        4.250639   1.000000
   17        4.290790   1.000000
   18        4.458476   1.000000
   19        4.676311   1.000000
   20        4.711773   1.000000
   21        4.711845   1.000000
   22        5.595561   1.000062
   23        7.536872  -0.000000
   24        9.598296  -0.000000
   25       11.103619  -0.000000
   26       13.355510   0.000000
   27       15.014635   0.000000
   28       15.688958   0.000000
   29       17.206086   0.000000
   30       17.938551   0.000000
 
  0.4444444E+00  0.2222222E+00  0.1111111E+00  0.6584362E-01
    1        0.406096   1.000000
    2        1.290933   1.000000
    3        2.723880   1.000000
    4        2.777189   1.000000
    5        2.873343   1.000000
    6        2.938418   1.000000
    7        2.980685   1.000000
    8        3.141043   1.000000
    9        3.283327   1.000000
   10        3.369248   1.000000
   11        3.562111   1.000000
   12        3.645679   1.000000
   13        3.904300   1.000000
   14        4.051806   1.000000
   15        4.162240   1.000000
   16        4.182889   1.000000
   17        4.296926   1.000000
   18        4.521331   1.000000
   19        4.628791   1.000000
   20        4.684384   1.000000
   21        4.684433   1.000000
   22        4.926020   1.000000
   23        8.455075  -0.000000
   24        9.498858  -0.000000
   25       10.867639  -0.000000
   26       11.983717   0.000000
   27       15.759210   0.000000
   28       16.687296   0.000000
   29       16.746929   0.000000
   30       17.906980   0.000000
 
  0.3333333E+00  0.3333333E+00  0.1111111E+00  0.3292181E-01
    1        0.175867   1.000000
    2        2.257659   1.000000
    3        2.257659   1.000000
    4        2.636071   1.000000
    5        2.927792   1.000000
    6        2.965470   1.000000
    7        2.965470   1.000000
    8        3.261229   1.000000
    9        3.384401   1.000000
   10        3.384401   1.000000
   11        3.510209   1.000000
   12        3.670371   1.000000
   13        3.812459   1.000000
   14        4.129245   1.000000
   15        4.152340   1.000000
   16        4.152340   1.000000
   17        4.162139   1.000000
   18        4.606522   1.000000
   19        4.606522   1.000000
   20        4.632591   1.000000
   21        4.640825   1.000000
   22        6.212400   0.490945
   23        6.212400   0.490945
   24        9.208853  -0.000000
   25       10.654269  -0.000000
   26       14.091544   0.000000
   27       14.091544   0.000000
   28       15.563116   0.000000
   29       17.698666   0.000000
   30       18.640769   0.000000
 
  0.4444444E+00  0.3333333E+00  0.1111111E+00  0.6584362E-01
    1        0.920136   1.000000
    2        1.684941   1.000000
    3        2.494310   1.000000
    4        2.614251   1.000000
    5        3.047331   1.000000
    6        3.097351   1.000000
    7        3.098189   1.000000
    8        3.198665   1.000000
    9        3.284675   1.000000
   10        3.395207   1.000000
   11        3.436492   1.000000
   12        3.573073   1.000000
   13        3.870246   1.000000
   14        3.993467   1.000000
   15        4.049773   1.000000
   16        4.070170   1.000000
   17        4.257096   1.000000
   18        4.442354   1.000000
   19        4.561806   1.000000
   20        4.572340   1.000000
   21        4.909518   1.000000
   22        5.363310   1.000000
   23        6.990080  -0.000000
   24        7.990636  -0.000000
   25       11.545101  -0.000000
   26       12.708553   0.000000
   27       15.071044   0.000000
   28       16.276036   0.000000
   29       16.356271   0.000000
   30       17.393967   0.000000
 
  0.4444444E+00  0.4444444E+00  0.1111111E+00  0.3292181E-01
    1        1.524480   1.000000
    2        2.084110   1.000000
    3        2.084110   1.000000
    4        2.393610   1.000000
    5        3.222515   1.000000
    6        3.248176   1.000000
    7        3.248503   1.000000
    8        3.248503   1.000000
    9        3.345223   1.000000
   10        3.345223   1.000000
   11        3.367684   1.000000
   12        3.490632   1.000000
   13        3.858213   1.000000
   14        3.936459   1.000000
   15        3.936459   1.000000
   16        3.949162   1.000000
   17        4.283560   1.000000
   18        4.410172   1.000000
   19        4.410172   1.000000
   20        4.463202   1.000000
   21        5.307106   1.000000
   22        5.946315   1.034240
   23        5.946315   1.034240
   24        6.792590  -0.000152
   25       12.496914   0.000000
   26       13.673441   0.000000
   27       13.673441   0.000000
   28       14.863921   0.000000
   29       17.201547   0.000000
   30       18.289937   0.000000
 
  0.2222222E+00  0.2222222E+00  0.2222222E+00  0.1097394E-01
    1       -0.669168   1.000000
    2        2.366032   1.000000
    3        2.366032   1.000000
    4        2.366032   1.000000
    5        2.781437   1.000000
    6        2.781437   1.000000
    7        2.781437   1.000000
    8        3.374416   1.000000
    9        3.710950   1.000000
   10        3.710950   1.000000
   11        3.710950   1.000000
   12        3.711139   1.000000
   13        3.711139   1.000000
   14        4.220244   1.000000
   15        4.220244   1.000000
   16        4.220244   1.000000
   17        4.291903   1.000000
   18        4.291903   1.000000
   19        4.782461   1.000000
   20        4.782461   1.000000
   21        4.782461   1.000000
   22        7.224922  -0.000000
   23        7.224922  -0.000000
   24        7.224922  -0.000000
   25       13.109629   0.000000
   26       13.109629   0.000000
   27       13.109629   0.000000
   28       16.992247   0.000000
   29       16.992247   0.000000
   30       16.992247   0.000000
 
  0.3333333E+00  0.2222222E+00  0.2222222E+00  0.3292181E-01
    1       -0.067971   1.000000
    2        2.094652   1.000000
    3        2.489567   1.000000
    4        2.489567   1.000000
    5        2.922394   1.000000
    6        2.922394   1.000000
    7        2.934441   1.000000
    8        3.329307   1.000000
    9        3.537668   1.000000
   10        3.537668   1.000000
   11        3.551922   1.000000
   12        3.697269   1.000000
   13        3.729727   1.000000
   14        4.055336   1.000000
   15        4.114217   1.000000
   16        4.114217   1.000000
   17        4.307296   1.000000
   18        4.435392   1.000000
   19        4.743856   1.000000
   20        4.743856   1.000000
   21        4.761183   1.000000
   22        5.901288   1.025615
   23        7.873287  -0.000000
   24        7.873287  -0.000000
   25       11.551705  -0.000000
   26       11.551705  -0.000000
   27       13.849989   0.000000
   28       17.469518   0.000000
   29       17.546836   0.000000
   30       17.546836   0.000000
 
  0.4444444E+00  0.2222222E+00  0.2222222E+00  0.3292181E-01
    1        0.696103   1.000000
    2        1.491162   1.000000
    3        2.577153   1.000000
    4        2.577153   1.000000
    5        3.008212   1.000000
    6        3.008212   1.000000
    7        3.099355   1.000000
    8        3.235341   1.000000
    9        3.460653   1.000000
   10        3.460653   1.000000
   11        3.530439   1.000000
   12        3.619039   1.000000
   13        3.795360   1.000000
   14        3.907196   1.000000
   15        4.039829   1.000000
   16        4.039829   1.000000
   17        4.519478   1.000000
   18        4.575036   1.000000
   19        4.688860   1.000000
   20        4.701204   1.000000
   21        4.701204   1.000000
   22        5.017318   1.000000
   23        8.570554  -0.000000
   24        8.570554  -0.000000
   25       10.396063  -0.000000
   26       10.396063  -0.000000
   27       14.833594   0.000000
   28       16.042563   0.000000
   29       18.332769   0.000000
   30       18.332769   0.000000
 
  0.3333333E+00  0.3333333E+00  0.2222222E+00  0.3292181E-01
    1        0.469245   1.000000
    2        2.217538   1.000000
    3        2.217538   1.000000
    4        2.445182   1.000000
    5        3.064828   1.000000
    6        3.107909   1.000000
    7        3.107909   1.000000