 vasp.6.2.0 18Jan21 (build Mar 17 2021 09:06:54) complex                        
  
 executed on             LinuxIFC date 2021.08.03  10:15:30
 serial version


--------------------------------------------------------------------------------------------------------


 INCAR:
   ENCUT = 320.000000
   SIGMA = 0.200000
   EDIFF = 1.00e-06
   GGA = PE
   PREC = normal
   IBRION = 1
   ICHARG = 1
   ISIF = 2
   ISMEAR = 1
   KPAR = 1
   NBANDS = 30
   NSW = 0
   NCORE = 1
   LCHARG = .TRUE.

 POTCAR:    PAW_PBE Cu 22Jun2005                  
 POTCAR:    PAW_PBE Cu 22Jun2005                  
   SHA256 =  0e71e558f37a4e8407882b4609ceaae59938afaad9ced71dfe8490308a0ab630 Cu/POTCAR             
   COPYR  = (c) Copyright 22Jun2005 Georg Kresse                                                    
   COPYR  = This file is part of the software VASP. Any use, copying, and all other rights are regul
   COPYR  = If you do not have a valid VASP license, you may not use, copy or distribute this file. 
   VRHFIN =Cu: d10 p1                                                                               
   LEXCH  = PE                                                                                      
   EATOM  =  1390.9808 eV,  102.2342 Ry                                                             
                                                                                                    
   TITEL  = PAW_PBE Cu 22Jun2005                                                                    
   LULTRA =        F    use ultrasoft PP ?                                                          
   IUNSCR =        1    unscreen: 0-lin 1-nonlin 2-no                                               
   RPACOR =    2.000    partial core radius                                                         
   POMASS =   63.546; ZVAL   =   11.000    mass and valenz                                          
   RCORE  =    2.300    outmost cutoff radius                                                       
   RWIGS  =    2.200; RWIGS  =    1.164    wigner-seitz radius (au A)                               
   ENMAX  =  295.446; ENMIN  =  221.585 eV                                                          
   ICORE  =        3    local potential                                                             
   LCOR   =        T    correct aug charges                                                         
   LPAW   =        T    paw PP                                                                      
   EAUG   =  586.980                                                                                
   DEXC   =    0.000                                                                                
   RMAX   =    2.344    core radius for proj-oper                                                   
   RAUG   =    1.300    factor for augmentation sphere                                              
   RDEP   =    2.302    radius for radial grids                                                     
   RDEPT  =    1.771    core radius for aug-charge                                                  
                                                                                                    
   Atomic configuration                                                                             
    9 entries                                                                                       
     n  l   j            E        occ.                                                              
     1  0  0.50     -8850.2468   2.0000                                                             
     2  0  0.50     -1062.3498   2.0000                                                             
     2  1  1.50      -916.8226   6.0000                                                             
     3  0  0.50      -114.6929   2.0000                                                             
     3  1  1.50       -72.1325   6.0000                                                             
     3  2  2.50        -5.0394  10.0000                                                             
     4  0  0.50        -4.6097   1.0000                                                             
     4  1  0.50        -4.0817   0.0000                                                             
     4  3  2.50        -1.3606   0.0000                                                             
   Description                                                                                      
     l       E           TYP  RCUT    TYP  RCUT                                                     
     2     -5.0393973     23  2.200                                                                 
     2     10.8846608     23  2.200                                                                 
     0     -4.6097109     23  2.200                                                                 
     0      8.2520465     23  2.200                                                                 
     1     -2.7211652     23  2.200                                                                 
     1     21.7055443     23  2.200                                                                 
     3      2.7211652     23  2.300                                                                 
  local pseudopotential read in
  partial core-charges read in
  partial kinetic energy density read in
  atomic valenz-charges read in
  non local Contribution for L=           2  read in
    real space projection operators read in
  non local Contribution for L=           2  read in
    real space projection operators read in
  non local Contribution for L=           0  read in
    real space projection operators read in
  non local Contribution for L=           0  read in
    real space projection operators read in
  non local Contribution for L=           1  read in
    real space projection operators read in
  non local Contribution for L=           1  read in
    real space projection operators read in
    PAW grid and wavefunctions read in
 
   number of l-projection  operators is LMAX  =           6
   number of lm-projection operators is LMMAX =          18
 
  PAW_PBE Cu 22Jun2005                  :
 energy of atom  1       EATOM=-1390.9808
 kinetic energy error for atom=    0.0368 (will be added to EATOM!!)
 
 
 POSCAR: Cu
  positions in cartesian coordinates
  No initial velocities read in
 exchange correlation table for  LEXCH =        8
   RHO(1)=    0.500       N(1)  =     2000
   RHO(2)=  100.500       N(2)  =     4000
 


--------------------------------------------------------------------------------------------------------


 ion  position               nearest neighbor table
   1  0.000  0.000  0.000-   2 2.65   3 2.65   4 2.65   3 2.65   4 2.65   2 2.65   4 2.65   4 2.65
                             2 2.65   3 2.65   3 2.65   2 2.65
   2  0.500  0.500  0.000-   1 2.65   3 2.65   4 2.65   3 2.65   4 2.65   1 2.65   3 2.65   3 2.65
                             1 2.65   4 2.65   4 2.65   1 2.65
   3  0.500  0.000  0.500-   1 2.65   2 2.65   4 2.65   1 2.65   2 2.65   2 2.65   4 2.65   2 2.65
                             1 2.65   4 2.65   1 2.65   4 2.65
   4  0.000  0.500  0.500-   1 2.65   2 2.65   3 2.65   1 2.65   2 2.65   1 2.65   3 2.65   1 2.65
                             2 2.65   3 2.65   2 2.65   3 2.65
 
  LATTYP: Found a simple cubic cell.
 ALAT       =     3.7523382197
  
  Lattice vectors:
  
 A1 = (   3.7523382197,   0.0000000000,   0.0000000000)
 A2 = (   0.0000000000,   3.7523382197,   0.0000000000)
 A3 = (   0.0000000000,   0.0000000000,   3.7523382197)


Analysis of symmetry for initial positions (statically):
=====================================================================
 Subroutine PRICEL returns following result:
 
  LATTYP: Found a face centered cubic cell.
 ALAT       =     3.7523382197
  
  Lattice vectors:
  
 A1 = (   1.8761691098,  -1.8761691098,   0.0000000000)
 A2 = (   1.8761691098,   0.0000000000,   1.8761691098)
 A3 = (   0.0000000000,  -1.8761691098,   1.8761691098)
 
   4 primitive cells build up your supercell.
 

 Routine SETGRP: Setting up the symmetry group for a 
 simple cubic supercell.


 Subroutine GETGRP returns: Found 48 space group operations
 (whereof 48 operations were pure point group operations)
 out of a pool of 48 trial point group operations.


The static configuration has the point symmetry O_h .


Analysis of symmetry for dynamics (positions and initial velocities):
=====================================================================
 Subroutine PRICEL returns following result:
 
  LATTYP: Found a face centered cubic cell.
 ALAT       =     3.7523382197
  
  Lattice vectors:
  
 A1 = (   1.8761691098,  -1.8761691098,   0.0000000000)
 A2 = (   1.8761691098,   0.0000000000,   1.8761691098)
 A3 = (   0.0000000000,  -1.8761691098,   1.8761691098)
 
   4 primitive cells build up your supercell.
 

 Routine SETGRP: Setting up the symmetry group for a 
 simple cubic supercell.


 Subroutine GETGRP returns: Found 48 space group operations
 (whereof 48 operations were pure point group operations)
 out of a pool of 48 trial point group operations.


The dynamic configuration has the point symmetry O_h .


 Subroutine INISYM returns: Found 48 space group operations
 (whereof 48 operations are pure point group operations),
 and found     4 'primitive' translations


----------------------------------------------------------------------------------------

                                     Primitive cell                                     

  volume of cell :      13.2083

  direct lattice vectors                    reciprocal lattice vectors
     1.876169110 -1.876169110  0.000000000     0.266500497 -0.266500497 -0.266500497
     1.876169110  0.000000000  1.876169110     0.266500497  0.266500497  0.266500497
     0.000000000 -1.876169110  1.876169110    -0.266500497 -0.266500497  0.266500497

  length of vectors
     2.653303800  2.653303800  2.653303800     0.461592401  0.461592401  0.461592401

  position of ions in fractional coordinates (direct lattice)
     0.000000000  0.000000000  0.000000000

  ion indices of the primitive-cell ions
   primitive index   ion index
                 1           1

----------------------------------------------------------------------------------------

 
 
 KPOINTS: KPOINTS created by Atomic Simulation Env

Automatic generation of k-mesh.
 Grid dimensions read from file:
 generate k-points for:    9    9    9

 Generating k-lattice:

  Cartesian coordinates                     Fractional coordinates (reciprocal lattice)
     0.029611166  0.000000000  0.000000000     0.111111111  0.000000000  0.000000000
     0.000000000  0.029611166  0.000000000     0.000000000  0.111111111  0.000000000
     0.000000000  0.000000000  0.029611166     0.000000000  0.000000000  0.111111111

  Length of vectors
     0.029611166  0.029611166  0.029611166

  Shift w.r.t. Gamma in fractional coordinates (k-lattice)
     0.000000000  0.000000000  0.000000000

 
 Subroutine IBZKPT returns following result:
 ===========================================
 
 Found     35 irreducible k-points:
 
 Following reciprocal coordinates:
            Coordinates               Weight
  0.000000  0.000000  0.000000      1.000000
  0.111111  0.000000  0.000000      6.000000
  0.222222  0.000000  0.000000      6.000000
  0.333333  0.000000  0.000000      6.000000
  0.444444  0.000000  0.000000      6.000000
  0.111111  0.111111  0.000000     12.000000
  0.222222  0.111111  0.000000     24.000000
  0.333333  0.111111  0.000000     24.000000
  0.444444  0.111111  0.000000     24.000000
  0.222222  0.222222  0.000000     12.000000
  0.333333  0.222222  0.000000     24.000000
  0.444444  0.222222  0.000000     24.000000
  0.333333  0.333333  0.000000     12.000000
  0.444444  0.333333  0.000000     24.000000
  0.444444  0.444444  0.000000     12.000000
  0.111111  0.111111  0.111111      8.000000
  0.222222  0.111111  0.111111     24.000000
  0.333333  0.111111  0.111111     24.000000
  0.444444  0.111111  0.111111     24.000000
  0.222222  0.222222  0.111111     24.000000
  0.333333  0.222222  0.111111     48.000000
  0.444444  0.222222  0.111111     48.000000
  0.333333  0.333333  0.111111     24.000000
  0.444444  0.333333  0.111111     48.000000
  0.444444  0.444444  0.111111     24.000000
  0.222222  0.222222  0.222222      8.000000
  0.333333  0.222222  0.222222     24.000000
  0.444444  0.222222  0.222222     24.000000
  0.333333  0.333333  0.222222     24.000000
  0.444444  0.333333  0.222222     48.000000
  0.444444  0.444444  0.222222     24.000000
  0.333333  0.333333  0.333333      8.000000
  0.444444  0.333333  0.333333     24.000000
  0.444444  0.444444  0.333333     24.000000
  0.444444  0.444444  0.444444      8.000000
 
 Following cartesian coordinates:
            Coordinates               Weight
  0.000000  0.000000  0.000000      1.000000
  0.029611  0.000000  0.000000      6.000000
  0.059222  0.000000  0.000000      6.000000
  0.088833  0.000000  0.000000      6.000000
  0.118445  0.000000  0.000000      6.000000
  0.029611  0.029611  0.000000     12.000000
  0.059222  0.029611  0.000000     24.000000
  0.088833  0.029611  0.000000     24.000000
  0.118445  0.029611  0.000000     24.000000
  0.059222  0.059222  0.000000     12.000000
  0.088833  0.059222  0.000000     24.000000
  0.118445  0.059222  0.000000     24.000000
  0.088833  0.088833  0.000000     12.000000
  0.118445  0.088833  0.000000     24.000000
  0.118445  0.118445  0.000000     12.000000
  0.029611  0.029611  0.029611      8.000000
  0.059222  0.029611  0.029611     24.000000
  0.088833  0.029611  0.029611     24.000000
  0.118445  0.029611  0.029611     24.000000
  0.059222  0.059222  0.029611     24.000000
  0.088833  0.059222  0.029611     48.000000
  0.118445  0.059222  0.029611     48.000000
  0.088833  0.088833  0.029611     24.000000
  0.118445  0.088833  0.029611     48.000000
  0.118445  0.118445  0.029611     24.000000
  0.059222  0.059222  0.059222      8.000000
  0.088833  0.059222  0.059222     24.000000
  0.118445  0.059222  0.059222     24.000000
  0.088833  0.088833  0.059222     24.000000
  0.118445  0.088833  0.059222     48.000000
  0.118445  0.118445  0.059222     24.000000
  0.088833  0.088833  0.088833      8.000000
  0.118445  0.088833  0.088833     24.000000
  0.118445  0.118445  0.088833     24.000000
  0.118445  0.118445  0.118445      8.000000
 


--------------------------------------------------------------------------------------------------------




 Dimension of arrays:
   k-points           NKPTS =     35   k-points in BZ     NKDIM =     35   number of bands    NBANDS=     30
   number of dos      NEDOS =    301   number of ions     NIONS =      4
   non local maximal  LDIM  =      6   non local SUM 2l+1 LMDIM =     18
   total plane-waves  NPLWV =   4096
   max r-space proj   IRMAX =      1   max aug-charges    IRDMAX=   2445
   dimension x,y,z NGX =    16 NGY =   16 NGZ =   16
   dimension x,y,z NGXF=    32 NGYF=   32 NGZF=   32
   support grid    NGXF=    32 NGYF=   32 NGZF=   32
   ions per type =               4
   NGX,Y,Z   is equivalent  to a cutoff of   7.09,  7.09,  7.09 a.u.
   NGXF,Y,Z  is equivalent  to a cutoff of  14.18, 14.18, 14.18 a.u.

 SYSTEM =  unknown system                          
 POSCAR =  Cu                                      

 Startparameter for this run:
   NWRITE =      2    write-flag & timer
   PREC   = normal    normal or accurate (medium, high low for compatibility)
   ISTART =      1    job   : 0-new  1-cont  2-samecut
   ICHARG =      1    charge: 1-file 2-atom 10-const
   ISPIN  =      1    spin polarized calculation?
   LNONCOLLINEAR =      F non collinear calculations
   LSORBIT =      F    spin-orbit coupling
   INIWAV =      1    electr: 0-lowe 1-rand  2-diag
   LASPH  =      F    aspherical Exc in radial PAW
   METAGGA=      F    non-selfconsistent MetaGGA calc.

 Electronic Relaxation 1
   ENCUT  =  320.0 eV  23.52 Ry    4.85 a.u.   5.47  5.47  5.47*2*pi/ulx,y,z
   ENINI  =  320.0     initial cutoff
   ENAUG  =  587.0 eV  augmentation charge cutoff
   NELM   =     60;   NELMIN=  2; NELMDL=  0     # of ELM steps 
   EDIFF  = 0.1E-05   stopping-criterion for ELM
   LREAL  =      F    real-space projection
   NLSPLINE    = F    spline interpolate recip. space projectors
   LCOMPAT=      F    compatible to vasp.4.4
   GGA_COMPAT  = T    GGA compatible to vasp.4.4-vasp.4.6
   LMAXPAW     = -100 max onsite density
   LMAXMIX     =    2 max onsite mixed and CHGCAR
   VOSKOWN=      0    Vosko Wilk Nusair interpolation
   ROPT   =    0.00000
 Ionic relaxation
   EDIFFG = 0.1E-04   stopping-criterion for IOM
   NSW    =      0    number of steps for IOM
   NBLOCK =      1;   KBLOCK =      1    inner block; outer block 
   IBRION =     -1    ionic relax: 0-MD 1-quasi-New 2-CG
   NFREE  =      0    steps in history (QN), initial steepest desc. (CG)
   ISIF   =      2    stress and relaxation
   IWAVPR =      0    prediction:  0-non 1-charg 2-wave 3-comb
   ISYM   =      2    0-nonsym 1-usesym 2-fastsym
   LCORR  =      T    Harris-Foulkes like correction to forces

   POTIM  = 0.5000    time-step for ionic-motion
   TEIN   =    0.0    initial temperature
   TEBEG  =    0.0;   TEEND  =   0.0 temperature during run
   SMASS  =  -3.00    Nose mass-parameter (am)
   estimated Nose-frequenzy (Omega)   =  0.10E-29 period in steps = 0.13E+47 mass=  -0.322E-27a.u.
   SCALEE = 1.0000    scale energy and forces
   NPACO  =    256;   APACO  = 16.0  distance and # of slots for P.C.
   PSTRESS=    0.0 pullay stress

  Mass of Ions in am
   POMASS =  63.55
  Ionic Valenz
   ZVAL   =  11.00
  Atomic Wigner-Seitz radii
   RWIGS  =  -1.00
  virtual crystal weights 
   VCA    =   1.00
   NELECT =      44.0000    total number of electrons
   NUPDOWN=      -1.0000    fix difference up-down

 DOS related values:
   EMIN   =  10.00;   EMAX   =-10.00  energy-range for DOS
   EFERMI =   0.00
   ISMEAR =     1;   SIGMA  =   0.20  broadening in eV -4-tet -1-fermi 0-gaus

 Electronic relaxation 2 (details)
   IALGO  =     38    algorithm
   LDIAG  =      T    sub-space diagonalisation (order eigenvalues)
   LSUBROT=      F    optimize rotation matrix (better conditioning)
   TURBO    =      0    0=normal 1=particle mesh
   IRESTART =      0    0=no restart 2=restart with 2 vectors
   NREBOOT  =      0    no. of reboots
   NMIN     =      0    reboot dimension
   EREF     =   0.00    reference energy to select bands
   IMIX   =      4    mixing-type and parameters
     AMIX     =   0.40;   BMIX     =  1.00
     AMIX_MAG =   1.60;   BMIX_MAG =  1.00
     AMIN     =   0.10
     WC   =   100.;   INIMIX=   1;  MIXPRE=   1;  MAXMIX= -45

 Intra band minimization:
   WEIMIN = 0.0000     energy-eigenvalue tresh-hold
   EBREAK =  0.83E-08  absolut break condition
   DEPER  =   0.30     relativ break condition  

   TIME   =   0.40     timestep for ELM

  volume/ion in A,a.u.               =      13.21        89.13
  Fermi-wavevector in a.u.,A,eV,Ry     =   1.540247  2.910645 32.277935  2.372361
  Thomas-Fermi vector in A             =   2.646361
 
 Write flags
   LWAVE        =      T    write WAVECAR
   LDOWNSAMPLE  =      F    k-point downsampling of WAVECAR
   LCHARG       =      T    write CHGCAR
   LVTOT        =      F    write LOCPOT, total local potential
   LVHAR        =      F    write LOCPOT, Hartree potential only
   LELF         =      F    write electronic localiz. function (ELF)
   LORBIT       =      0    0 simple, 1 ext, 2 COOP (PROOUT), +10 PAW based schemes


 Dipole corrections
   LMONO  =      F    monopole corrections only (constant potential shift)
   LDIPOL =      F    correct potential (dipole corrections)
   IDIPOL =      0    1-x, 2-y, 3-z, 4-all directions 
   EPSILON=  1.0000000 bulk dielectric constant

 Exchange correlation treatment:
   GGA     =    PE    GGA type
   LEXCH   =     8    internal setting for exchange type
   VOSKOWN=      0    Vosko Wilk Nusair interpolation
   LHFCALC =     F    Hartree Fock is set to
   LHFONE  =     F    Hartree Fock one center treatment
   AEXX    =    0.0000 exact exchange contribution

 Linear response parameters
   LEPSILON=     F    determine dielectric tensor
   LRPA    =     F    only Hartree local field effects (RPA)
   LNABLA  =     F    use nabla operator in PAW spheres
   LVEL    =     F    velocity operator in full k-point grid
   LINTERFAST=   F  fast interpolation
   KINTER  =     0    interpolate to denser k-point grid
   CSHIFT  =0.1000    complex shift for real part using Kramers Kronig
   OMEGAMAX=  -1.0    maximum frequency
   DEG_THRESHOLD= 0.2000000E-02 threshold for treating states as degnerate
   RTIME   =   -0.100 relaxation time in fs
  (WPLASMAI=    0.000 imaginary part of plasma frequency in eV, 0.658/RTIME)
   DFIELD  = 0.0000000 0.0000000 0.0000000 field for delta impulse in time
 
 Orbital magnetization related:
   ORBITALMAG=     F  switch on orbital magnetization
   LCHIMAG   =     F  perturbation theory with respect to B field
   DQ        =  0.001000  dq finite difference perturbation B field
   LLRAUG    =     F  two centre corrections for induced B field



--------------------------------------------------------------------------------------------------------


 Static calculation
 charge density and potential will be updated during run
 non-spin polarized calculation
 Variant of blocked Davidson
 Davidson routine will perform the subspace rotation
 perform sub-space diagonalisation
    after iterative eigenvector-optimisation
 modified Broyden-mixing scheme, WC =      100.0
 initial mixing is a Kerker type mixing with AMIX =  0.4000 and BMIX =      1.0000
 Hartree-type preconditioning will be used
 using additional bands            8
 reciprocal scheme for non local part
 use partial core corrections
 calculate Harris-corrections to forces 
   (improved forces if not selfconsistent)
 use gradient corrections 
 use of overlap-Matrix (Vanderbilt PP)
 Methfessel and Paxton  Order N= 1 SIGMA  =   0.20


--------------------------------------------------------------------------------------------------------


  energy-cutoff  :      320.00
  volume of cell :       52.83
      direct lattice vectors                 reciprocal lattice vectors
     3.752338220  0.000000000  0.000000000     0.266500497  0.000000000  0.000000000
     0.000000000  3.752338220  0.000000000     0.000000000  0.266500497  0.000000000
     0.000000000  0.000000000  3.752338220     0.000000000  0.000000000  0.266500497

  length of vectors
     3.752338220  3.752338220  3.752338220     0.266500497  0.266500497  0.266500497


 
 old parameters found on file WAVECAR:
  energy-cutoff  :      320.00
  volume of cell :       52.83
      direct lattice vectors                 reciprocal lattice vectors
     3.752338220  0.000000000  0.000000000     0.266500497  0.000000000  0.000000000
     0.000000000  3.752338220  0.000000000     0.000000000  0.266500497  0.000000000
     0.000000000  0.000000000  3.752338220     0.000000000  0.000000000  0.266500497

  length of vectors

 
 k-points in units of 2pi/SCALE and weight: KPOINTS created by Atomic Simulation Env
   0.00000000  0.00000000  0.00000000       0.001
   0.02961117  0.00000000  0.00000000       0.008
   0.05922233  0.00000000  0.00000000       0.008
   0.08883350  0.00000000  0.00000000       0.008
   0.11844467  0.00000000  0.00000000       0.008
   0.02961117  0.02961117  0.00000000       0.016
   0.05922233  0.02961117  0.00000000       0.033
   0.08883350  0.02961117  0.00000000       0.033
   0.11844467  0.02961117  0.00000000       0.033
   0.05922233  0.05922233  0.00000000       0.016
   0.08883350  0.05922233  0.00000000       0.033
   0.11844467  0.05922233  0.00000000       0.033
   0.08883350  0.08883350  0.00000000       0.016
   0.11844467  0.08883350  0.00000000       0.033
   0.11844467  0.11844467  0.00000000       0.016
   0.02961117  0.02961117  0.02961117       0.011
   0.05922233  0.02961117  0.02961117       0.033
   0.08883350  0.02961117  0.02961117       0.033
   0.11844467  0.02961117  0.02961117       0.033
   0.05922233  0.05922233  0.02961117       0.033
   0.08883350  0.05922233  0.02961117       0.066
   0.11844467  0.05922233  0.02961117       0.066
   0.08883350  0.08883350  0.02961117       0.033
   0.11844467  0.08883350  0.02961117       0.066
   0.11844467  0.11844467  0.02961117       0.033
   0.05922233  0.05922233  0.05922233       0.011
   0.08883350  0.05922233  0.05922233       0.033
   0.11844467  0.05922233  0.05922233       0.033
   0.08883350  0.08883350  0.05922233       0.033
   0.11844467  0.08883350  0.05922233       0.066
   0.11844467  0.11844467  0.05922233       0.033
   0.08883350  0.08883350  0.08883350       0.011
   0.11844467  0.08883350  0.08883350       0.033
   0.11844467  0.11844467  0.08883350       0.033
   0.11844467  0.11844467  0.11844467       0.011
 
 k-points in reciprocal lattice and weights: KPOINTS created by Atomic Simulation Env
   0.00000000  0.00000000  0.00000000       0.001
   0.11111111  0.00000000  0.00000000       0.008
   0.22222222  0.00000000  0.00000000       0.008
   0.33333333  0.00000000  0.00000000       0.008
   0.44444444  0.00000000  0.00000000       0.008
   0.11111111  0.11111111  0.00000000       0.016
   0.22222222  0.11111111  0.00000000       0.033
   0.33333333  0.11111111  0.00000000       0.033
   0.44444444  0.11111111  0.00000000       0.033
   0.22222222  0.22222222  0.00000000       0.016
   0.33333333  0.22222222  0.00000000       0.033
   0.44444444  0.22222222  0.00000000       0.033
   0.33333333  0.33333333  0.00000000       0.016
   0.44444444  0.33333333  0.00000000       0.033
   0.44444444  0.44444444  0.00000000       0.016
   0.11111111  0.11111111  0.11111111       0.011
   0.22222222  0.11111111  0.11111111       0.033
   0.33333333  0.11111111  0.11111111       0.033
   0.44444444  0.11111111  0.11111111       0.033
   0.22222222  0.22222222  0.11111111       0.033
   0.33333333  0.22222222  0.11111111       0.066
   0.44444444  0.22222222  0.11111111       0.066
   0.33333333  0.33333333  0.11111111       0.033
   0.44444444  0.33333333  0.11111111       0.066
   0.44444444  0.44444444  0.11111111       0.033
   0.22222222  0.22222222  0.22222222       0.011
   0.33333333  0.22222222  0.22222222       0.033
   0.44444444  0.22222222  0.22222222       0.033
   0.33333333  0.33333333  0.22222222       0.033
   0.44444444  0.33333333  0.22222222       0.066
   0.44444444  0.44444444  0.22222222       0.033
   0.33333333  0.33333333  0.33333333       0.011
   0.44444444  0.33333333  0.33333333       0.033
   0.44444444  0.44444444  0.33333333       0.033
   0.44444444  0.44444444  0.44444444       0.011
 
 position of ions in fractional coordinates (direct lattice) 
   0.00000000  0.00000000  0.00000000
   0.50000000  0.50000000  0.00000000
   0.50000000  0.00000000  0.50000000
   0.00000000  0.50000000  0.50000000
 
 position of ions in cartesian coordinates  (Angst):
   0.00000000  0.00000000  0.00000000
   1.87616911  1.87616911  0.00000000
   1.87616911  0.00000000  1.87616911
   0.00000000  1.87616911  1.87616911
 


--------------------------------------------------------------------------------------------------------


 k-point   1 :   0.0000 0.0000 0.0000  plane waves:     691
 k-point   2 :   0.1111 0.0000 0.0000  plane waves:     711
 k-point   3 :   0.2222 0.0000 0.0000  plane waves:     695
 k-point   4 :   0.3333 0.0000 0.0000  plane waves:     687
 k-point   5 :   0.4444 0.0000 0.0000  plane waves:     695
 k-point   6 :   0.1111 0.1111 0.0000  plane waves:     697
 k-point   7 :   0.2222 0.1111 0.0000  plane waves:     691
 k-point   8 :   0.3333 0.1111 0.0000  plane waves:     689
 k-point   9 :   0.4444 0.1111 0.0000  plane waves:     683
 k-point  10 :   0.2222 0.2222 0.0000  plane waves:     690
 k-point  11 :   0.3333 0.2222 0.0000  plane waves:     686
 k-point  12 :   0.4444 0.2222 0.0000  plane waves:     686
 k-point  13 :   0.3333 0.3333 0.0000  plane waves:     700
 k-point  14 :   0.4444 0.3333 0.0000  plane waves:     691
 k-point  15 :   0.4444 0.4444 0.0000  plane waves:     688
 k-point  16 :   0.1111 0.1111 0.1111  plane waves:     697
 k-point  17 :   0.2222 0.1111 0.1111  plane waves:     691
 k-point  18 :   0.3333 0.1111 0.1111  plane waves:     687
 k-point  19 :   0.4444 0.1111 0.1111  plane waves:     687
 k-point  20 :   0.2222 0.2222 0.1111  plane waves:     691
 k-point  21 :   0.3333 0.2222 0.1111  plane waves:     694
 k-point  22 :   0.4444 0.2222 0.1111  plane waves:     688
 k-point  23 :   0.3333 0.3333 0.1111  plane waves:     690
 k-point  24 :   0.4444 0.3333 0.1111  plane waves:     687
 k-point  25 :   0.4444 0.4444 0.1111  plane waves:     683
 k-point  26 :   0.2222 0.2222 0.2222  plane waves:     693
 k-point  27 :   0.3333 0.2222 0.2222  plane waves:     687
 k-point  28 :   0.4444 0.2222 0.2222  plane waves:     676
 k-point  29 :   0.3333 0.3333 0.2222  plane waves:     686
 k-point  30 :   0.4444 0.3333 0.2222  plane waves:     682
 k-point  31 :   0.4444 0.4444 0.2222  plane waves:     684
 k-point  32 :   0.3333 0.3333 0.3333  plane waves:     675
 k-point  33 :   0.4444 0.3333 0.3333  plane waves:     675
 k-point  34 :   0.4444 0.4444 0.3333  plane waves:     677
 k-point  35 :   0.4444 0.4444 0.4444  plane waves:     675

 maximum number of plane-waves:       711
 maximum index in each direction: 
   IXMAX=    5   IYMAX=    5   IZMAX=    5
   IXMIN=   -5   IYMIN=   -5   IZMIN=   -5


 total amount of memory used by VASP MPI-rank0    48650. kBytes
=======================================================================

   base      :      30000. kBytes
   nonl-proj :       3628. kBytes
   grid      :       1806. kBytes
   one-center:         62. kBytes
   wavefun   :      13154. kBytes
 
     INWAV:  cpu time    0.0163: real time    0.0163
 Broyden mixing: mesh for mixing (old mesh)
   NGX = 11   NGY = 11   NGZ = 11
  (NGX  = 32   NGY  = 32   NGZ  = 32)
  gives a total of   1331 points

 initial charge density was supplied:
 number of electron      44.0000943 magnetization 
 keeping initial charge density in first step


--------------------------------------------------------------------------------------------------------


 Maximum index for augmentation-charges         2109 (set IRDMAX)


--------------------------------------------------------------------------------------------------------


 First call to EWALD:  gamma=   0.472
 Maximum number of real-space cells 3x 3x 3
 Maximum number of reciprocal cells 3x 3x 3

    FEWALD:  cpu time    0.0009: real time    0.0009


--------------------------------------- Iteration      1(   1)  ---------------------------------------


    POTLOK:  cpu time    0.0073: real time    0.0073
    SETDIJ:  cpu time    0.0037: real time    0.0037
     EDDAV:  cpu time    0.4682: real time    0.4868
       DOS:  cpu time    0.0027: real time    0.0027
    CHARGE:  cpu time    0.0320: real time    0.0320
    MIXING:  cpu time    0.0003: real time    0.0003
    --------------------------------------------
      LOOP:  cpu time    0.5142: real time    0.5329

 eigenvalue-minimisations  :  2342
 total energy-change (2. order) :-0.1478249E+02  (-0.1270321E-04)
 number of electron      44.0000944 magnetization 
 augmentation part       28.1321853 magnetization 

 Broyden mixing:
  rms(total) = 0.70483E-03    rms(broyden)= 0.61962E-03
  rms(prec ) = 0.12620E-02
  weight for this iteration     100.00
  WARNING: grid for Broyden might be to small

 Free energy of the ion-electron system (eV)
  ---------------------------------------------------
  alpha Z        PSCENC =       221.47579804
  Ewald energy   TEWEN  =     -4257.90279123
  -Hartree energ DENC   =     -1447.37721254
  -exchange      EXHF   =         0.00000000
  -V(xc)+E(xc)   XCENC  =       177.84764029
  PAW double counting   =      5128.51251247    -5557.65746148
  entropy T*S    EENTRO =         0.00278983
  eigenvalues    EBANDS =       156.54013014
  atomic energy  EATOM  =      5563.77610493
  Solvation  Ediel_sol  =         0.00000000
  ---------------------------------------------------
  free energy    TOTEN  =       -14.78248955 eV

  energy without entropy =      -14.78527938  energy(sigma->0) =      -14.78341949


--------------------------------------------------------------------------------------------------------




--------------------------------------- Iteration      1(   2)  ---------------------------------------


    POTLOK:  cpu time    0.0072: real time    0.0072
    SETDIJ:  cpu time    0.0038: real time    0.0038
     EDDAV:  cpu time    0.4376: real time    0.4376
       DOS:  cpu time    0.0027: real time    0.0027
    CHARGE:  cpu time    0.0312: real time    0.0312
    MIXING:  cpu time    0.0003: real time    0.0003
    --------------------------------------------
      LOOP:  cpu time    0.4828: real time    0.4828

 eigenvalue-minimisations  :  2280
 total energy-change (2. order) : 0.1634958E-02  (-0.1322774E-04)
 number of electron      44.0000944 magnetization 
 augmentation part       28.1342522 magnetization 

 Broyden mixing:
  rms(total) = 0.85817E-03    rms(broyden)= 0.80961E-03
  rms(prec ) = 0.17601E-02
  weight for this iteration     100.00

 eigenvalues of (default mixing * dielectric matrix)
  average eigenvalue GAMMA=   0.4318
  0.4318

 Free energy of the ion-electron system (eV)
  ---------------------------------------------------
  alpha Z        PSCENC =       221.47579804
  Ewald energy   TEWEN  =     -4257.90279123
  -Hartree energ DENC   =     -1447.34511007
  -exchange      EXHF   =         0.00000000
  -V(xc)+E(xc)   XCENC  =       177.84599260
  PAW double counting   =      5128.47565029    -5557.61470976
  entropy T*S    EENTRO =         0.00278929
  eigenvalues    EBANDS =       156.50542131
  atomic energy  EATOM  =      5563.77610493
  Solvation  Ediel_sol  =         0.00000000
  ---------------------------------------------------
  free energy    TOTEN  =       -14.78085459 eV

  energy without entropy =      -14.78364388  energy(sigma->0) =      -14.78178435


--------------------------------------------------------------------------------------------------------




--------------------------------------- Iteration      1(   3)  ---------------------------------------


    POTLOK:  cpu time    0.0069: real time    0.0069
    SETDIJ:  cpu time    0.0038: real time    0.0038
     EDDAV:  cpu time    0.3772: real time    0.3772
       DOS:  cpu time    0.0026: real time    0.0026
    CHARGE:  cpu time    0.0314: real time    0.0314
    MIXING:  cpu time    0.0003: real time    0.0003
    --------------------------------------------
      LOOP:  cpu time    0.4222: real time    0.4222

 eigenvalue-minimisations  :  1898
 total energy-change (2. order) : 0.1672133E-05  (-0.4010632E-06)
 number of electron      44.0000943 magnetization 
 augmentation part       28.1335503 magnetization 

 Broyden mixing:
  rms(total) = 0.35229E-03    rms(broyden)= 0.34961E-03
  rms(prec ) = 0.73102E-03
  weight for this iteration     100.00

 eigenvalues of (default mixing * dielectric matrix)
  average eigenvalue GAMMA=   0.5811
  0.5811  0.5811

 Free energy of the ion-electron system (eV)
  ---------------------------------------------------
  alpha Z        PSCENC =       221.47579804
  Ewald energy   TEWEN  =     -4257.90279123
  -Hartree energ DENC   =     -1447.36779596
  -exchange      EXHF   =         0.00000000
  -V(xc)+E(xc)   XCENC  =       177.84716554
  PAW double counting   =      5128.50364121    -5557.64970702
  entropy T*S    EENTRO =         0.00278911
  eigenvalues    EBANDS =       156.53394245
  atomic energy  EATOM  =      5563.77610493
  Solvation  Ediel_sol  =         0.00000000
  ---------------------------------------------------
  free energy    TOTEN  =       -14.78085292 eV

  energy without entropy =      -14.78364203  energy(sigma->0) =      -14.78178262


--------------------------------------------------------------------------------------------------------




--------------------------------------- Iteration      1(   4)  ---------------------------------------


    POTLOK:  cpu time    0.0069: real time    0.0069
    SETDIJ:  cpu time    0.0037: real time    0.0037
     EDDAV:  cpu time    0.2724: real time    0.2724
       DOS:  cpu time    0.0025: real time    0.0025
    --------------------------------------------
      LOOP:  cpu time    0.2856: real time    0.2856

 eigenvalue-minimisations  :  1080
 total energy-change (2. order) : 0.1061544E-06  (-0.3237304E-07)
 number of electron      44.0000943 magnetization 
 augmentation part       28.1335503 magnetization 

 Free energy of the ion-electron system (eV)
  ---------------------------------------------------
  alpha Z        PSCENC =       221.47579804
  Ewald energy   TEWEN  =     -4257.90279123
  -Hartree energ DENC   =     -1447.37368079
  -exchange      EXHF   =         0.00000000
  -V(xc)+E(xc)   XCENC  =       177.84746220
  PAW double counting   =      5128.50650655    -5557.65379671
  entropy T*S    EENTRO =         0.00278904
  eigenvalues    EBANDS =       156.54075515
  atomic energy  EATOM  =      5563.77610493
  Solvation  Ediel_sol  =         0.00000000
  ---------------------------------------------------
  free energy    TOTEN  =       -14.78085281 eV

  energy without entropy =      -14.78364186  energy(sigma->0) =      -14.78178249


--------------------------------------------------------------------------------------------------------




 average (electrostatic) potential at core
  the test charge radii are     0.9430
  (the norm of the test charge is              1.0000)
       1 -64.7615       2 -64.7615       3 -64.7615       4 -64.7615
 
 
 
 E-fermi :   6.2103     XC(G=0): -12.0905     alpha+bet :-12.0033

 Fermi energy:         6.2102597198

 k-point     1 :       0.0000    0.0000    0.0000
  band No.  band energies     occupation 
      1      -2.2569      2.00000
      2       2.0138      2.00000
      3       2.0138      2.00000
      4       2.0138      2.00000
      5       2.4021      2.00000
      6       2.4021      2.00000
      7       2.4021      2.00000
      8       3.5715      2.00000
      9       3.5715      2.00000
     10       3.5715      2.00000
     11       4.2660      2.00000
     12       4.2660      2.00000
     13       4.7295      2.00000
     14       4.7295      2.00000
     15       4.7295      2.00000
     16       4.8607      2.00000
     17       4.8607      2.00000
     18       4.8607      2.00000
     19       4.8607      2.00000
     20       4.8607      2.00000
     21       4.8607      2.00000
     22       7.8576     -0.00000
     23       7.8576     -0.00000
     24       7.8576     -0.00000
     25      12.6410      0.00000
     26      12.6410      0.00000
     27      12.6410      0.00000
     28      18.5166      0.00000
     29      18.5166      0.00000
     30      18.5166      0.00000

 k-point     2 :       0.1111    0.0000    0.0000
  band No.  band energies     occupation 
      1      -2.1185      2.00000
      2       2.0070      2.00000
      3       2.0743      2.00000
      4       2.0743      2.00000
      5       2.4357      2.00000
      6       2.4378      2.00000
      7       2.4378      2.00000
      8       3.5346      2.00000
      9       3.6016      2.00000
     10       3.6016      2.00000
     11       4.2326      2.00000
     12       4.2796      2.00000
     13       4.6603      2.00000
     14       4.6603      2.00000
     15       4.6860      2.00000
     16       4.6860      2.00000
     17       4.7148      2.00000
     18       4.8096      2.00000
     19       4.8096      2.00000
     20       4.8606      2.00000
     21       4.8606      2.00000
     22       7.0055     -0.00000
     23       8.1847     -0.00000
     24       8.1847     -0.00000
     25      12.6984      0.00000
     26      12.6984      0.00000
     27      13.7784      0.00000
     28      17.6489      0.00000
     29      17.6489      0.00000
     30      17.9061      0.00000

 k-point     3 :       0.2222    0.0000    0.0000
  band No.  band energies     occupation 
      1      -1.7078      2.00000
      2       1.9322      2.00000
      3       2.2404      2.00000
      4       2.2404      2.00000
      5       2.5335      2.00000
      6       2.5466      2.00000
      7       2.5466      2.00000
      8       3.4291      2.00000
      9       3.6905      2.00000
     10       3.6905      2.00000
     11       4.1397      2.00000
     12       4.2262      2.00000
     13       4.2262      2.00000
     14       4.3191      2.00000
     15       4.5642      2.00000
     16       4.5642      2.00000
     17       4.6688      2.00000
     18       4.6688      2.00000
     19       4.6738      2.00000
     20       4.8608      2.00000
     21       4.8608      2.00000
     22       5.5435      2.00003
     23       8.9979     -0.00000
     24       8.9979     -0.00000
     25      12.8797      0.00000
     26      12.8797      0.00000
     27      16.0476      0.00000
     28      16.0476      0.00000
     29      16.1410      0.00000
     30      16.6878      0.00000

 k-point     4 :       0.3333    0.0000    0.0000
  band No.  band energies     occupation 
      1      -1.0424      2.00000
      2       1.5917      2.00000
      3       2.4602      2.00000
      4       2.4602      2.00000
      5       2.6844      2.00000
      6       2.7313      2.00000
      7       2.7313      2.00000
      8       3.2689      2.00000
      9       3.7586      2.00000
     10       3.7586      2.00000
     11       3.8337      2.00000
     12       3.8337      2.00000
     13       4.0113      2.00000
     14       4.3799      2.00000
     15       4.3952      2.00000
     16       4.3952      2.00000
     17       4.4092      2.00000
     18       4.4675      2.00000
     19       4.4675      2.00000
     20       4.6113      2.00000
     21       4.8610      2.00000
     22       4.8610      2.00000
     23      10.0926     -0.00000
     24      10.0926     -0.00000
     25      13.2112      0.00000
     26      13.2112      0.00000
     27      14.3903      0.00000
     28      14.3903      0.00000
     29      15.4792      0.00000
     30      15.4792      0.00000

 k-point     5 :       0.4444    0.0000    0.0000
  band No.  band energies     occupation 
      1      -0.1653      2.00000
      2       0.8080      2.00000
      3       2.6317      2.00000
      4       2.6317      2.00000
      5       2.8722      2.00000
      6       2.9948      2.00000
      7       2.9948      2.00000
      8       3.0752      2.00000
      9       3.3393      2.00000
     10       3.3393      2.00000
     11       3.9013      2.00000
     12       3.9371      2.00000
     13       4.0226      2.00000
     14       4.0226      2.00000
     15       4.2417      2.00000
     16       4.2417      2.00000
     17       4.2566      2.00000
     18       4.2566      2.00000
     19       4.4549      2.00000
     20       4.5353      2.00000
     21       4.8611      2.00000
     22       4.8611      2.00000
     23      11.3793     -0.00000
     24      11.3793     -0.00000
     25      12.8202      0.00000
     26      12.8202      0.00000
     27      13.7313      0.00000
     28      13.7313      0.00000
     29      14.4806      0.00000
     30      14.4806      0.00000

 k-point     6 :       0.1111    0.1111    0.0000
  band No.  band energies     occupation 
      1      -1.9809      2.00000
      2       2.0704      2.00000
      3       2.0704      2.00000
      4       2.1320      2.00000
      5       2.4705      2.00000
      6       2.4705      2.00000
      7       2.4717      2.00000
      8       3.5152      2.00000
      9       3.6156      2.00000
     10       3.6262      2.00000
     11       4.2242      2.00000
     12       4.2739      2.00000
     13       4.5242      2.00000
     14       4.5647      2.00000
     15       4.5647      2.00000
     16       4.6460      2.00000
     17       4.7001      2.00000
     18       4.7001      2.00000
     19       4.8095      2.00000
     20       4.8095      2.00000
     21       4.8275      2.00000
     22       7.3215     -0.00000
     23       7.3215     -0.00000
     24       8.4812     -0.00000
     25      12.7578      0.00000
     26      13.8629      0.00000
     27      13.8629      0.00000
     28      16.0315      0.00000
     29      17.8297      0.00000
     30      17.8297      0.00000

 k-point     7 :       0.2222    0.1111    0.0000
  band No.  band energies     occupation 
      1      -1.5733      2.00000
      2       2.0050      2.00000
      3       2.2452      2.00000
      4       2.2906      2.00000
      5       2.5645      2.00000
      6       2.5735      2.00000
      7       2.5755      2.00000
      8       3.4224      2.00000
      9       3.6956      2.00000
     10       3.6963      2.00000
     11       4.1285      2.00000
     12       4.1484      2.00000
     13       4.1569      2.00000
     14       4.3151      2.00000
     15       4.3491      2.00000
     16       4.5328      2.00000
     17       4.5741      2.00000
     18       4.6625      2.00000
     19       4.6681      2.00000
     20       4.8091      2.00000
     21       4.8100      2.00000
     22       5.9104      2.05534
     23       8.0587     -0.00000
     24       9.2461     -0.00000
     25      12.9437      0.00000
     26      14.1259      0.00000
     27      14.3011      0.00000
     28      16.2172      0.00000
     29      16.2441      0.00000
     30      16.8445      0.00000

 k-point     8 :       0.3333    0.1111    0.0000
  band No.  band energies     occupation 
      1      -0.9134      2.00000
      2       1.6801      2.00000
      3       2.4789      2.00000
      4       2.5047      2.00000
      5       2.7102      2.00000
      6       2.7390      2.00000
      7       2.7536      2.00000
      8       3.2710      2.00000
      9       3.6723      2.00000
     10       3.7296      2.00000
     11       3.7844      2.00000
     12       3.8358      2.00000
     13       4.0081      2.00000
     14       4.0606      2.00000
     15       4.3749      2.00000
     16       4.3908      2.00000
     17       4.4058      2.00000
     18       4.4667      2.00000
     19       4.5579      2.00000
     20       4.8064      2.00000
     21       4.8082      2.00000
     22       4.9471      2.00000
     23       9.0037     -0.00000
     24      10.3058     -0.00000
     25      12.7079      0.00000
     26      13.3023      0.00000
     27      14.5599      0.00000
     28      14.5919      0.00000
     29      15.6152      0.00000
     30      17.3608      0.00000

 k-point     9 :       0.4444    0.1111    0.0000
  band No.  band energies     occupation 
      1      -0.0455      2.00000
      2       0.9137      2.00000
      3       2.6692      2.00000
      4       2.6804      2.00000
      5       2.8909      2.00000
      6       2.9632      2.00000
      7       3.0068      2.00000
      8       3.0858      2.00000
      9       3.2742      2.00000
     10       3.3354      2.00000
     11       3.7803      2.00000
     12       3.7820      2.00000
     13       4.0230      2.00000
     14       4.1200      2.00000
     15       4.2413      2.00000
     16       4.2494      2.00000
     17       4.2622      2.00000
     18       4.3328      2.00000
     19       4.4891      2.00000
     20       4.6181      2.00000
     21       4.8064      2.00000
     22       4.8072      2.00000
     23      10.0916     -0.00000
     24      11.3208     -0.00000
     25      11.5699     -0.00000
     26      12.9970      0.00000
     27      13.8293      0.00000
     28      14.5941      0.00000
     29      15.2928      0.00000
     30      16.2287      0.00000

 k-point    10 :       0.2222    0.2222    0.0000
  band No.  band energies     occupation 
      1      -1.1752      2.00000
      2       2.2071      2.00000
      3       2.2071      2.00000
      4       2.4266      2.00000
      5       2.6548      2.00000
      6       2.6588      2.00000
      7       2.6588      2.00000
      8       3.3751      2.00000
      9       3.7147      2.00000
     10       3.7410      2.00000
     11       3.8913      2.00000
     12       3.8913      2.00000
     13       3.9441      2.00000
     14       4.1231      2.00000
     15       4.3579      2.00000
     16       4.4415      2.00000
     17       4.5540      2.00000
     18       4.5540      2.00000
     19       4.6665      2.00000
     20       4.6665      2.00000
     21       4.7303      2.00000
     22       6.5950     -0.02030
     23       6.5950     -0.02030
     24       9.9218     -0.00000
     25      12.4438      0.00000
     26      13.1741      0.00000
     27      16.5579      0.00000
     28      16.5579      0.00000
     29      16.7113      0.00000
     30      16.7113      0.00000

 k-point    11 :       0.3333    0.2222    0.0000
  band No.  band energies     occupation 
      1      -0.5334      2.00000
      2       1.9270      2.00000
      3       2.4853      2.00000
      4       2.6138      2.00000
      5       2.7761      2.00000
      6       2.7871      2.00000
      7       2.8174      2.00000
      8       3.2647      2.00000
      9       3.4754      2.00000
     10       3.6375      2.00000
     11       3.6402      2.00000
     12       3.7221      2.00000
     13       3.8567      2.00000
     14       4.0732      2.00000
     15       4.3115      2.00000
     16       4.3959      2.00000
     17       4.4590      2.00000
     18       4.4652      2.00000
     19       4.4786      2.00000
     20       4.6646      2.00000
     21       4.6859      2.00000
     22       5.5029      2.00001
     23       7.4107     -0.00000
     24      10.8497     -0.00000
     25      10.9060     -0.00000
     26      13.5423      0.00000
     27      15.0539      0.00000
     28      16.0137      0.00000
     29      17.0946      0.00000
     30      17.4933      0.00000

 k-point    12 :       0.4444    0.2222    0.0000
  band No.  band energies     occupation 
      1       0.3038      2.00000
      2       1.2154      2.00000
      3       2.7389      2.00000
      4       2.8151      2.00000
      5       2.8745      2.00000
      6       2.9449      2.00000
      7       3.0396      2.00000
      8       3.1120      2.00000
      9       3.1291      2.00000
     10       3.3196      2.00000
     11       3.5729      2.00000
     12       3.6543      2.00000
     13       4.0310      2.00000
     14       4.1269      2.00000
     15       4.2144      2.00000
     16       4.2424      2.00000
     17       4.2495      2.00000
     18       4.2895      2.00000
     19       4.6549      2.00000
     20       4.6642      2.00000
     21       4.6689      2.00000
     22       4.9319      2.00000
     23       8.3628     -0.00000
     24       9.4944     -0.00000
     25      12.1169      0.00000
     26      13.5094      0.00000
     27      14.1216      0.00000
     28      14.9402      0.00000
     29      17.8547      0.00000
     30      18.5200      0.00000

 k-point    13 :       0.3333    0.3333    0.0000
  band No.  band energies     occupation 
      1       0.0727      2.00000
      2       2.2710      2.00000
      3       2.2710      2.00000
      4       2.7072      2.00000
      5       2.8800      2.00000
      6       2.9135      2.00000
      7       2.9135      2.00000
      8       3.2232      2.00000
      9       3.3459      2.00000
     10       3.3459      2.00000
     11       3.4803      2.00000
     12       3.6701      2.00000
     13       3.9282      2.00000
     14       4.0208      2.00000
     15       4.2118      2.00000
     16       4.3135      2.00000
     17       4.3135      2.00000
     18       4.4661      2.00000
     19       4.4661      2.00000
     20       4.5749      2.00000
     21       4.6676      2.00000
     22       6.1489      1.49307
     23       6.1489      1.49307
     24       9.2528     -0.00000
     25      11.8147      0.00000
     26      13.9747      0.00000
     27      15.8356      0.00000
     28      15.8356      0.00000
     29      16.6737      0.00000
     30      16.6737      0.00000

 k-point    14 :       0.4444    0.3333    0.0000
  band No.  band energies     occupation 
      1       0.8463      2.00000
      2       1.6585      2.00000
      3       2.5911      2.00000
      4       2.7321      2.00000
      5       3.0036      2.00000
      6       3.0274      2.00000
      7       3.0837      2.00000
      8       3.1350      2.00000
      9       3.1386      2.00000
     10       3.2824      2.00000
     11       3.4181      2.00000
     12       3.5671      2.00000
     13       4.0374      2.00000
     14       4.0655      2.00000
     15       4.1340      2.00000
     16       4.1651      2.00000
     17       4.1748      2.00000
     18       4.2543      2.00000
     19       4.4764      2.00000
     20       4.5075      2.00000
     21       4.9391      2.00000
     22       5.3683      2.00000
     23       6.9401     -0.00000
     24       7.9543     -0.00000
     25      12.9654      0.00000
     26      14.3153      0.00000
     27      14.6248      0.00000
     28      15.5209      0.00000
     29      16.8647      0.00000
     30      17.5807      0.00000

 k-point    15 :       0.4444    0.4444    0.0000
  band No.  band energies     occupation 
      1       1.5023      2.00000
      2       2.1333      2.00000
      3       2.1333      2.00000
      4       2.5041      2.00000
      5       3.1247      2.00000
      6       3.1247      2.00000
      7       3.1458      2.00000
      8       3.1865      2.00000
      9       3.2158      2.00000
     10       3.3114      2.00000
     11       3.3114      2.00000
     12       3.4743      2.00000
     13       3.9806      2.00000
     14       4.0433      2.00000
     15       4.0505      2.00000
     16       4.0505      2.00000
     17       4.1497      2.00000
     18       4.2923      2.00000
     19       4.2923      2.00000
     20       4.3744      2.00000
     21       5.3341      2.00000
     22       5.9467      2.06857
     23       5.9467      2.06857
     24       6.7751     -0.00048
     25      14.0627      0.00000
     26      15.3591      0.00000
     27      15.3709      0.00000
     28      15.3709      0.00000
     29      16.3428      0.00000
     30      16.3428      0.00000

 k-point    16 :       0.1111    0.1111    0.1111
  band No.  band energies     occupation 
      1      -1.8445      2.00000
      2       2.1302      2.00000
      3       2.1302      2.00000
      4       2.1302      2.00000
      5       2.5033      2.00000
      6       2.5033      2.00000
      7       2.5033      2.00000
      8       3.4985      2.00000
      9       3.6367      2.00000
     10       3.6367      2.00000
     11       4.2448      2.00000
     12       4.2448      2.00000
     13       4.4461      2.00000
     14       4.4461      2.00000
     15       4.4461      2.00000
     16       4.5988      2.00000
     17       4.5988      2.00000
     18       4.5988      2.00000
     19       4.8156      2.00000
     20       4.8156      2.00000
     21       4.8156      2.00000
     22       7.5950     -0.00000
     23       7.5950     -0.00000
     24       7.5950     -0.00000
     25      13.9496      0.00000
     26      13.9496      0.00000
     27      13.9496      0.00000
     28      16.2001      0.00000
     29      16.2001      0.00000
     30      16.2001      0.00000

 k-point    17 :       0.2222    0.1111    0.1111
  band No.  band energies     occupation 
      1      -1.4402      2.00000
      2       2.0717      2.00000
      3       2.2944      2.00000
      4       2.2944      2.00000
      5       2.5952      2.00000
      6       2.6023      2.00000
      7       2.6023      2.00000
      8       3.4176      2.00000
      9       3.6964      2.00000
     10       3.7003      2.00000
     11       4.0703      2.00000
     12       4.0703      2.00000
     13       4.1707      2.00000
     14       4.2121      2.00000
     15       4.3033      2.00000
     16       4.4748      2.00000
     17       4.5001      2.00000
     18       4.5001      2.00000
     19       4.7737      2.00000
     20       4.7965      2.00000
     21       4.7965      2.00000
     22       6.1702      1.33184
     23       8.2721     -0.00000
     24       8.2721     -0.00000
     25      14.2191      0.00000
     26      14.2191      0.00000
     27      14.4632      0.00000
     28      14.4632      0.00000
     29      16.3481      0.00000
     30      16.6920      0.00000

 k-point    18 :       0.3333    0.1111    0.1111
  band No.  band energies     occupation 
      1      -0.7867      2.00000
      2       1.7599      2.00000
      3       2.5177      2.00000
      4       2.5177      2.00000
      5       2.7374      2.00000
      6       2.7604      2.00000
      7       2.7604      2.00000
      8       3.2764      2.00000
      9       3.6576      2.00000
     10       3.6576      2.00000
     11       3.7665      2.00000
     12       3.8061      2.00000
     13       3.8810      2.00000
     14       4.1200      2.00000
     15       4.3061      2.00000
     16       4.3613      2.00000
     17       4.3613      2.00000
     18       4.3908      2.00000
     19       4.6999      2.00000
     20       4.7795      2.00000
     21       4.7795      2.00000
     22       5.1227      2.00000
     23       9.1735     -0.00000
     24       9.1735     -0.00000
     25      12.8896      0.00000
     26      12.8896      0.00000
     27      14.6961      0.00000
     28      14.6961      0.00000
     29      17.4717      0.00000
     30      17.5067      0.00000

 k-point    19 :       0.4444    0.1111    0.1111
  band No.  band energies     occupation 
      1       0.0704      2.00000
      2       1.0127      2.00000
      3       2.7163      2.00000
      4       2.7163      2.00000
      5       2.9128      2.00000
      6       2.9412      2.00000
      7       2.9412      2.00000
      8       3.1002      2.00000
      9       3.3131      2.00000
     10       3.3131      2.00000
     11       3.7075      2.00000
     12       3.7356      2.00000
     13       3.9502      2.00000
     14       4.1229      2.00000
     15       4.2376      2.00000
     16       4.2376      2.00000
     17       4.2451      2.00000
     18       4.4953      2.00000
     19       4.5577      2.00000
     20       4.6029      2.00000
     21       4.7720      2.00000
     22       4.7720      2.00000
     23      10.2080     -0.00000
     24      10.2080     -0.00000
     25      11.5295     -0.00000
     26      11.5295     -0.00000
     27      15.4048      0.00000
     28      15.4048      0.00000
     29      16.3600      0.00000
     30      16.3600      0.00000

 k-point    20 :       0.2222    0.2222    0.1111
  band No.  band energies     occupation 
      1      -1.0469      2.00000
      2       2.2532      2.00000
      3       2.2532      2.00000
      4       2.4251      2.00000
      5       2.6846      2.00000
      6       2.6881      2.00000
      7       2.6881      2.00000
      8       3.3790      2.00000
      9       3.7121      2.00000
     10       3.7263      2.00000
     11       3.8490      2.00000
     12       3.8490      2.00000
     13       3.8783      2.00000
     14       4.1733      2.00000
     15       4.3364      2.00000
     16       4.3701      2.00000
     17       4.3903      2.00000
     18       4.3903      2.00000
     19       4.7570      2.00000
     20       4.7570      2.00000
     21       4.7575      2.00000
     22       6.7665     -0.00060
     23       6.7665     -0.00060
     24       8.8380     -0.00000
     25      12.6376      0.00000
     26      14.5088      0.00000
     27      14.9364      0.00000
     28      14.9364      0.00000
     29      16.6658      0.00000
     30      16.6658      0.00000

 k-point    21 :       0.3333    0.2222    0.1111
  band No.  band energies     occupation 
      1      -0.4144      2.00000
      2       1.9765      2.00000
      3       2.4956      2.00000
      4       2.5973      2.00000
      5       2.8065      2.00000
      6       2.8216      2.00000
      7       2.8356      2.00000
      8       3.2817      2.00000
      9       3.4950      2.00000
     10       3.6051      2.00000
     11       3.6175      2.00000
     12       3.7165      2.00000
     13       3.7970      2.00000
     14       4.1649      2.00000
     15       4.2251      2.00000
     16       4.2506      2.00000
     17       4.2908      2.00000
     18       4.4585      2.00000
     19       4.6763      2.00000
     20       4.7118      2.00000
     21       4.7118      2.00000
     22       5.5956      2.00012
     23       7.5369     -0.00000
     24       9.5983     -0.00000
     25      11.1036     -0.00000
     26      13.3555      0.00000
     27      15.0146      0.00000
     28      15.6890      0.00000
     29      17.2061      0.00000
     30      17.9386      0.00000

 k-point    22 :       0.4444    0.2222    0.1111
  band No.  band energies     occupation 
      1       0.4061      2.00000
      2       1.2909      2.00000
      3       2.7239      2.00000
      4       2.7772      2.00000
      5       2.8733      2.00000
      6       2.9384      2.00000
      7       2.9807      2.00000
      8       3.1410      2.00000
      9       3.2833      2.00000
     10       3.3692      2.00000
     11       3.5621      2.00000
     12       3.6457      2.00000
     13       3.9043      2.00000
     14       4.0518      2.00000
     15       4.1622      2.00000
     16       4.1829      2.00000
     17       4.2969      2.00000
     18       4.5213      2.00000
     19       4.6288      2.00000
     20       4.6844      2.00000
     21       4.6844      2.00000
     22       4.9260      2.00000
     23       8.4551     -0.00000
     24       9.4989     -0.00000
     25      10.8676     -0.00000
     26      11.9837      0.00000
     27      15.7592      0.00000
     28      16.6873      0.00000
     29      16.7469      0.00000
     30      17.9070      0.00000

 k-point    23 :       0.3333    0.3333    0.1111
  band No.  band energies     occupation 
      1       0.1759      2.00000
      2       2.2577      2.00000
      3       2.2577      2.00000
      4       2.6361      2.00000
      5       2.9278      2.00000
      6       2.9655      2.00000
      7       2.9655      2.00000
      8       3.2612      2.00000
      9       3.3844      2.00000
     10       3.3844      2.00000
     11       3.5102      2.00000
     12       3.6704      2.00000
     13       3.8125      2.00000
     14       4.1292      2.00000
     15       4.1523      2.00000
     16       4.1523      2.00000
     17       4.1621      2.00000
     18       4.6065      2.00000
     19       4.6065      2.00000
     20       4.6326      2.00000
     21       4.6408      2.00000
     22       6.2124      0.98189
     23       6.2124      0.98189
     24       9.2089     -0.00000
     25      10.6543     -0.00000
     26      14.0915      0.00000
     27      14.0915      0.00000
     28      15.5631      0.00000
     29      17.6987      0.00000
     30      18.6408      0.00000

 k-point    24 :       0.4444    0.3333    0.1111
  band No.  band energies     occupation 
      1       0.9201      2.00000
      2       1.6849      2.00000
      3       2.4943      2.00000
      4       2.6143      2.00000
      5       3.0473      2.00000
      6       3.0974      2.00000
      7       3.0982      2.00000
      8       3.1987      2.00000
      9       3.2847      2.00000
     10       3.3952      2.00000
     11       3.4365      2.00000
     12       3.5731      2.00000
     13       3.8702      2.00000
     14       3.9935      2.00000
     15       4.0498      2.00000
     16       4.0702      2.00000
     17       4.2571      2.00000
     18       4.4424      2.00000
     19       4.5618      2.00000
     20       4.5723      2.00000
     21       4.9095      2.00000
     22       5.3633      2.00000
     23       6.9901     -0.00000
     24       7.9906     -0.00000
     25      11.5451     -0.00000
     26      12.7086      0.00000
     27      15.0710      0.00000
     28      16.2760      0.00000
     29      16.3563      0.00000
     30      17.3940      0.00000

 k-point    25 :       0.4444    0.4444    0.1111
  band No.  band energies     occupation 
      1       1.5245      2.00000
      2       2.0841      2.00000
      3       2.0841      2.00000
      4       2.3936      2.00000
      5       3.2225      2.00000
      6       3.2482      2.00000
      7       3.2485      2.00000
      8       3.2485      2.00000
      9       3.3452      2.00000
     10       3.3452      2.00000
     11       3.3677      2.00000
     12       3.4906      2.00000
     13       3.8582      2.00000
     14       3.9365      2.00000
     15       3.9365      2.00000
     16       3.9492      2.00000
     17       4.2836      2.00000
     18       4.4102      2.00000
     19       4.4102      2.00000
     20       4.4632      2.00000
     21       5.3071      2.00000
     22       5.9463      2.06848
     23       5.9463      2.06848
     24       6.7926     -0.00030
     25      12.4969      0.00000
     26      13.6734      0.00000
     27      13.6734      0.00000
     28      14.8639      0.00000
     29      17.2015      0.00000
     30      18.2899      0.00000

 k-point    26 :       0.2222    0.2222    0.2222
  band No.  band energies     occupation 
      1      -0.6692      2.00000
      2       2.3660      2.00000
      3       2.3660      2.00000
      4       2.3660      2.00000
      5       2.7814      2.00000
      6       2.7814      2.00000
      7       2.7814      2.00000
      8       3.3744      2.00000
      9       3.7110      2.00000
     10       3.7110      2.00000
     11       3.7110      2.00000
     12       3.7111      2.00000
     13       3.7111      2.00000
     14       4.2202      2.00000
     15       4.2202      2.00000
     16       4.2202      2.00000
     17       4.2919      2.00000
     18       4.2919      2.00000
     19       4.7825      2.00000
     20       4.7825      2.00000
     21       4.7825      2.00000
     22       7.2249     -0.00000
     23       7.2249     -0.00000
     24       7.2249     -0.00000
     25      13.1096      0.00000
     26      13.1096      0.00000
     27      13.1096      0.00000
     28      16.9922      0.00000
     29      16.9922      0.00000
     30      16.9922      0.00000

 k-point    27 :       0.3333    0.2222    0.2222
  band No.  band energies     occupation 
      1      -0.0680      2.00000
      2       2.0947      2.00000
      3       2.4896      2.00000
      4       2.4896      2.00000
      5       2.9224      2.00000
      6       2.9224      2.00000
      7       2.9344      2.00000
      8       3.3293      2.00000
      9       3.5377      2.00000
     10       3.5377      2.00000
     11       3.5519      2.00000
     12       3.6973      2.00000
     13       3.7297      2.00000
     14       4.0553      2.00000
     15       4.1142      2.00000
     16       4.1142      2.00000
     17       4.3073      2.00000
     18       4.4354      2.00000
     19       4.7439      2.00000
     20       4.7439      2.00000
     21       4.7612      2.00000
     22       5.9013      2.05123
     23       7.8733     -0.00000
     24       7.8733     -0.00000
     25      11.5517     -0.00000
     26      11.5517     -0.00000
     27      13.8500      0.00000
     28      17.4695      0.00000
     29      17.5468      0.00000
     30      17.5468      0.00000

 k-point    28 :       0.4444    0.2222    0.2222
  band No.  band energies     occupation 
      1       0.6961      2.00000
      2       1.4912      2.00000
      3       2.5772      2.00000
      4       2.5772      2.00000
      5       3.0082      2.00000
      6       3.0082      2.00000
      7       3.0994      2.00000
      8       3.2353      2.00000
      9       3.4607      2.00000
     10       3.4607      2.00000
     11       3.5304      2.00000
     12       3.6190      2.00000
     13       3.7954      2.00000
     14       3.9072      2.00000
     15       4.0398      2.00000
     16       4.0398      2.00000
     17       4.5195      2.00000
     18       4.5750      2.00000
     19       4.6889      2.00000
     20       4.7012      2.00000
     21       4.7012      2.00000
     22       5.0173      2.00000
     23       8.5706     -0.00000
     24       8.5706     -0.00000
     25      10.3961     -0.00000
     26      10.3961     -0.00000
     27      14.8336      0.00000
     28      16.0426      0.00000
     29      18.3328      0.00000
     30      18.3328      0.00000

 k-point    29 :       0.3333    0.3333    0.2222
  band No.  band energies     occupation 
      1       0.4692      2.00000
      2       2.2175      2.00000
      3       2.2175      2.00000
      4       2.4452      2.00000
      5       3.0648      2.00000
      6       3.1079      2.00000
      7       3.1079      2.00000
      8       3.3855      2.00000
      9       3.4915      2.00000
     10       3.4915      2.00000
     11       3.5800      2.00000
     12       3.6658      2.00000
     13       3.7015      2.00000
     14       3.9597      2.00000
     15       3.9597      2.00000
     16       3.9729      2.00000
     17       4.3462      2.00000
     18       4.5708      2.00000
     19       4.7173      2.00000
     20       4.7305      2.00000
     21       4.7305      2.00000
     22       6.4107     -0.05066
     23       6.4107     -0.05066
     24       8.2214     -0.00000
     25      10.2304     -0.00000
     26      12.2655      0.00000
     27      12.2655      0.00000
     28      15.8256      0.00000
     29      18.1221      0.00000
     30      20.3897      0.00000

 k-point    30 :       0.4444    0.3333    0.2222
  band No.  band energies     occupation 
      1       1.1179      2.00000
      2       1.7453      2.00000
      3       2.3116      2.00000
      4       2.3839      2.00000
      5       3.1713      2.00000
      6       3.2011      2.00000
      7       3.3041      2.00000
      8       3.4010      2.00000
      9       3.4980      2.00000
     10       3.5448      2.00000
     11       3.5829      2.00000
     12       3.6073      2.00000
     13       3.7318      2.00000
     14       3.8239      2.00000
     15       3.8949      2.00000
     16       3.9003      2.00000
     17       4.4688      2.00000
     18       4.6433      2.00000
     19       4.6709      2.00000
     20       4.6739      2.00000
     21       4.8236      2.00000
     22       5.3740      2.00000
     23       7.1009     -0.00000
     24       7.8978     -0.00000
     25      10.0998     -0.00000
     26      10.9773     -0.00000
     27      13.2222      0.00000
     28      14.4098      0.00000
     29      18.9344      0.00000
     30      19.9626      0.00000

 k-point    31 :       0.4444    0.4444    0.2222
  band No.  band energies     occupation 
      1       1.5768      2.00000
      2       1.9830      2.00000
      3       1.9830      2.00000
      4       2.1893      2.00000
      5       3.3189      2.00000
      6       3.3958      2.00000
      7       3.3958      2.00000
      8       3.5256      2.00000
      9       3.5758      2.00000
     10       3.6016      2.00000
     11       3.6016      2.00000
     12       3.6893      2.00000
     13       3.7096      2.00000
     14       3.7806      2.00000
     15       3.7806      2.00000
     16       3.7938      2.00000
     17       4.4645      2.00000
     18       4.5777      2.00000
     19       4.5777      2.00000
     20       4.6016      2.00000
     21       5.2220      2.00000
     22       5.9415      2.06723
     23       5.9415      2.06723
     24       6.7967     -0.00027
     25      10.8026     -0.00000
     26      11.8728      0.00000
     27      11.8728      0.00000
     28      13.0192      0.00000
     29      19.7779      0.00000
     30      20.8473      0.00000

 k-point    32 :       0.3333    0.3333    0.3333
  band No.  band energies     occupation 
      1       0.9000      2.00000
      2       2.1683      2.00000
      3       2.1683      2.00000
      4       2.1683      2.00000
      5       3.2577      2.00000
      6       3.2577      2.00000
      7       3.2577      2.00000
      8       3.6037      2.00000
      9       3.6427      2.00000
     10       3.6427      2.00000
     11       3.6637      2.00000
     12       3.6637      2.00000
     13       3.6637      2.00000
     14       3.8215      2.00000
     15       3.8215      2.00000
     16       3.8215      2.00000
     17       4.5172      2.00000
     18       4.5172      2.00000
     19       4.7585      2.00000
     20       4.7585      2.00000
     21       4.7585      2.00000
     22       6.7361     -0.00127
     23       6.7361     -0.00127
     24       6.7361     -0.00127
     25      10.7840     -0.00000
     26      10.7840     -0.00000
     27      10.7840     -0.00000
     28      14.1902      0.00000
     29      20.9550      0.00000
     30      20.9550      0.00000

 k-point    33 :       0.4444    0.3333    0.3333
  band No.  band energies     occupation 
      1       1.3784      2.00000
      2       1.8133      2.00000
      3       2.1361      2.00000
      4       2.1361      2.00000
      5       3.3303      2.00000
      6       3.3303      2.00000
      7       3.4494      2.00000
      8       3.5799      2.00000
      9       3.6442      2.00000
     10       3.7062      2.00000
     11       3.7492      2.00000
     12       3.7492      2.00000
     13       3.7498      2.00000
     14       3.7800      2.00000
     15       3.8395      2.00000
     16       3.8395      2.00000
     17       4.6533      2.00000
     18       4.7244      2.00000
     19       4.7244      2.00000
     20       4.7333      2.00000
     21       4.7370      2.00000
     22       5.5117      2.00001
     23       7.0701     -0.00000
     24       7.0701     -0.00000
     25       9.8447     -0.00000
     26       9.8447     -0.00000
     27      11.6640     -0.00000
     28      12.8023      0.00000
     29      21.7353      0.00000
     30      21.7353      0.00000

 k-point    34 :       0.4444    0.4444    0.3333
  band No.  band energies     occupation 
      1       1.6418      2.00000
      2       1.8908      2.00000
      3       1.8908      2.00000
      4       1.9948      2.00000
      5       3.4303      2.00000
      6       3.4702      2.00000
      7       3.4702      2.00000
      8       3.5587      2.00000
      9       3.6053      2.00000
     10       3.6477      2.00000
     11       3.6477      2.00000
     12       3.6619      2.00000
     13       4.0615      2.00000
     14       4.0615      2.00000
     15       4.0730      2.00000
     16       4.1415      2.00000
     17       4.6157      2.00000
     18       4.7025      2.00000
     19       4.7025      2.00000
     20       4.7040      2.00000
     21       5.0724      2.00000
     22       5.9224      2.06049
     23       5.9224      2.06049
     24       6.5753     -0.02697
     25       9.7369     -0.00000
     26      10.4595     -0.00000
     27      10.4595     -0.00000
     28      11.4770     -0.00000
     29      22.5435      0.00000
     30      23.5328      0.00000

 k-point    35 :       0.4444    0.4444    0.4444
  band No.  band energies     occupation 
      1       1.7239      2.00000
      2       1.8384      2.00000
      3       1.8384      2.00000
      4       1.8384      2.00000
      5       3.5175      2.00000
      6       3.5175      2.00000
      7       3.5175      2.00000
      8       3.5604      2.00000
      9       3.5604      2.00000
     10       3.5802      2.00000
     11       3.5802      2.00000
     12       3.5802      2.00000
     13       4.4529      2.00000
     14       4.4529      2.00000
     15       4.4529      2.00000
     16       4.7135      2.00000
     17       4.7135      2.00000
     18       4.7441      2.00000
     19       4.7441      2.00000
     20       4.7441      2.00000
     21       5.0554      2.00000
     22       5.8886      2.04539
     23       5.8886      2.04539
     24       5.8886      2.04539
     25       9.6351     -0.00000
     26       9.6351     -0.00000
     27       9.6351     -0.00000
     28      10.3079     -0.00000
     29      25.2929      0.00000
     30      25.2929      0.00000


--------------------------------------------------------------------------------------------------------


 soft charge-density along one line, spin component           1
         0         1         2         3         4         5         6         7         8         9
x    15.8665    0.0000   -0.0000    0.0000    0.9643    0.0000   -0.0000   -0.0000   -0.4556    0.0000
x     0.0000    0.0000    0.0503   -0.0000    0.0000    0.0000    0.0000    0.0000
y    15.8665    0.0000   -0.0000    0.0000    0.9643    0.0000   -0.0000   -0.0000   -0.4556    0.0000
y     0.0000    0.0000    0.0503   -0.0000    0.0000    0.0000    0.0000    0.0000
z    15.8665    0.0000   -0.0000    0.0000    0.9643    0.0000   -0.0000   -0.0000   -0.4556    0.0000
z     0.0000    0.0000    0.0503   -0.0000    0.0000    0.0000    0.0000    0.0000
 total charge-density along one line
x    44.0001    0.0000   -0.0000   -0.0000   19.6391   -0.0000   -0.0000    0.0000    4.1469    0.0000
x    -0.0000   -0.0000    0.0569    0.0000    0.0000    0.0000    0.0099    0.0000    0.0000   -0.0000
x    -0.0017    0.0000    0.0000    0.0000    0.0006    0.0000    0.0000   -0.0000   -0.0004   -0.0000
x    -0.0000   -0.0000    0.0003    0.0000
y    44.0001    0.0000    0.0000    0.0000   19.6391    0.0000    0.0000    0.0000    4.1469   -0.0000
y     0.0000   -0.0000    0.0569   -0.0000    0.0000   -0.0000    0.0099    0.0000    0.0000   -0.0000
y    -0.0017   -0.0000    0.0000   -0.0000    0.0006   -0.0000    0.0000   -0.0000   -0.0004    0.0000
y     0.0000   -0.0000    0.0003    0.0000
z    44.0001    0.0000   -0.0000    0.0000   19.6391    0.0000   -0.0000    0.0000    4.1469    0.0000
z     0.0000   -0.0000    0.0569   -0.0000    0.0000   -0.0000    0.0099    0.0000    0.0000   -0.0000
z    -0.0017    0.0000    0.0000   -0.0000    0.0006    0.0000    0.0000   -0.0000   -0.0004    0.0000
z     0.0000   -0.0000    0.0003    0.0000
 
 pseudopotential strength for first ion, spin component:           1
 -3.676  -0.000  -0.000   0.000   0.000  -4.137   0.000   0.000
 -0.000  -3.676   0.000   0.000  -0.000   0.000  -4.137  -0.000
 -0.000   0.000  -3.662  -0.000  -0.000   0.000  -0.000  -4.147
  0.000   0.000  -0.000  -3.676  -0.000  -0.000  -0.000   0.000
  0.000  -0.000  -0.000  -0.000  -3.662  -0.000   0.000   0.000
 -4.137   0.000   0.000  -0.000  -0.000   9.881  -0.000  -0.000
  0.000  -4.137  -0.000  -0.000   0.000  -0.000   9.881   0.000
  0.000  -0.000  -4.147   0.000   0.000  -0.000   0.000   9.889
 -0.000  -0.000   0.000  -4.137   0.000   0.000   0.000  -0.000
 -0.000   0.000   0.000   0.000  -4.147   0.000  -0.000  -0.000
 -0.000  -0.000   0.000   0.000  -0.000  -0.000  -0.000  -0.000
 -0.000  -0.000   0.000   0.000   0.000  -0.000  -0.000  -0.000
  0.000  -0.000   0.000  -0.000   0.000  -0.000  -0.000   0.000
 -0.000  -0.000  -0.000   0.000  -0.000  -0.000   0.000   0.000
 -0.000  -0.000  -0.000  -0.000   0.000  -0.000  -0.000  -0.000
  0.000  -0.000   0.000   0.000   0.000   0.000  -0.000   0.000
  0.000  -0.000  -0.000   0.000   0.000  -0.000   0.000   0.000
 -0.000   0.000  -0.000  -0.000   0.000  -0.000  -0.000  -0.000
 total augmentation occupancy for first ion, spin component:           1
  1.903  -0.000   0.000  -0.000  -0.000  -0.023  -0.000  -0.000  -0.000  -0.000  -0.000  -0.000  -0.000  -0.000   0.000  -0.000
  0.000   1.903  -0.000  -0.000   0.000  -0.000  -0.023  -0.000   0.000   0.000  -0.000   0.000   0.000  -0.000   0.000   0.000
  0.000  -0.000   1.923   0.000   0.000  -0.000  -0.000  -0.039  -0.000  -0.000  -0.000  -0.000   0.000   0.000   0.000  -0.000
  0.000  -0.000   0.000   1.903  -0.000   0.000   0.000  -0.000  -0.023  -0.000  -0.000   0.000   0.000   0.000  -0.000   0.000
 -0.000  -0.000   0.000   0.000   1.923  -0.000  -0.000  -0.000   0.000  -0.039   0.000  -0.000   0.000  -0.000  -0.000  -0.000
 -0.023  -0.000  -0.000  -0.000   0.000   0.013   0.000   0.000  -0.000  -0.000   0.000   0.000   0.000   0.000  -0.000   0.000
  0.000  -0.023  -0.000   0.000  -0.000   0.000   0.013   0.000  -0.000  -0.000   0.000   0.000   0.000   0.000  -0.000   0.000
 -0.000  -0.000  -0.039   0.000  -0.000   0.000   0.000   0.012   0.000   0.000  -0.000  -0.000  -0.000   0.000   0.000  -0.000
 -0.000   0.000  -0.000  -0.023   0.000  -0.000  -0.000   0.000   0.013   0.000   0.000   0.000   0.000   0.000  -0.000   0.000
  0.000   0.000  -0.000  -0.000  -0.039  -0.000  -0.000  -0.000   0.000   0.012  -0.000  -0.000  -0.000  -0.000   0.000  -0.000
 -0.000   0.000  -0.000   0.000   0.000   0.000   0.000  -0.000   0.000  -0.000   1.616  -0.144   0.000   0.000   0.000   0.000
 -0.000  -0.000  -0.000  -0.000  -0.000   0.000   0.000   0.000   0.000   0.000  -0.144   0.017   0.000   0.000   0.000   0.000
 -0.000   0.000   0.000   0.000   0.000   0.000   0.000   0.000   0.000   0.000   0.000   0.000   0.193   0.000   0.000  -0.012
 -0.000  -0.000  -0.000   0.000  -0.000   0.000   0.000   0.000   0.000   0.000   0.000   0.000   0.000   0.193  -0.000   0.000
  0.000   0.000   0.000  -0.000   0.000  -0.000  -0.000   0.000  -0.000  -0.000   0.000   0.000   0.000  -0.000   0.193   0.000
 -0.000   0.000   0.000   0.000   0.000   0.000   0.000   0.000   0.000  -0.000   0.000   0.000  -0.012  -0.000   0.000   0.001
  0.000   0.000  -0.000   0.000   0.000  -0.000  -0.000   0.000   0.000   0.000   0.000   0.000  -0.000  -0.012  -0.000  -0.000
 -0.000  -0.000   0.000  -0.000  -0.000   0.000  -0.000   0.000   0.000   0.000   0.000   0.000   0.000  -0.000  -0.012  -0.000


------------------------ aborting loop because EDIFF is reached ----------------------------------------


    CHARGE:  cpu time    0.0323: real time    0.0323
    FORLOC:  cpu time    0.0006: real time    0.0006
    FORNL :  cpu time    0.1766: real time    0.1766
    STRESS:  cpu time    0.2014: real time    0.2014
    FORCOR:  cpu time    0.0076: real time    0.0076
    FORHAR:  cpu time    0.0018: real time    0.0018
    MIXING:  cpu time    0.0004: real time    0.0004

  FORCE on cell =-STRESS in cart. coord.  units (eV):
  Direction    XX          YY          ZZ          XY          YZ          ZX
  --------------------------------------------------------------------------------------
  Alpha Z   221.47580   221.47580   221.47580
  Ewald   -1419.30155 -1419.30155 -1419.30155     0.00000    -0.00000    -0.00000
  Hartree   482.46822   482.46822   482.46822    -0.00000    -0.00000    -0.00000
  E(xc)    -256.58058  -256.58058  -256.58058     0.00000     0.00000    -0.00000
  Local     324.09075   324.09075   324.09075     0.00000     0.00000    -0.00000
  n-local   -85.08564   -93.20583   -94.50012     0.41050     2.62011     1.15555
  augment   378.83844   378.83844   378.83844     0.00000     0.00000    -0.00000
  Kinetic   363.56361   355.47775   350.12196    -3.32595     0.09812    -1.04734
  Fock        0.00000     0.00000     0.00000     0.00000     0.00000     0.00000
  -------------------------------------------------------------------------------------
  Total      -3.55169    -3.55169    -3.55169     0.00000    -0.00000    -0.00000
  in kB    -107.70594  -107.70594  -107.70594     0.00000    -0.00000    -0.00000
  external pressure =     -107.71 kB  Pullay stress =        0.00 kB


 VOLUME and BASIS-vectors are now :
 -----------------------------------------------------------------------------
  energy-cutoff  :      320.00
  volume of cell :       52.83
      direct lattice vectors                 reciprocal lattice vectors
     3.752338220  0.000000000  0.000000000     0.266500497  0.000000000  0.000000000
     0.000000000  3.752338220  0.000000000     0.000000000  0.266500497  0.000000000
     0.000000000  0.000000000  3.752338220     0.000000000  0.000000000  0.266500497

  length of vectors
     3.752338220  3.752338220  3.752338220     0.266500497  0.266500497  0.266500497


 FORCES acting on ions
    electron-ion (+dipol)            ewald-force                    non-local-force                 convergence-correction
 -----------------------------------------------------------------------------------------------
   -.831E-13 0.186E-13 0.123E-13   0.525E-14 0.139E-13 -.218E-14   0.525E-24 -.156E-23 0.248E-24   -.279E-13 0.162E-13 0.196E-14
   0.189E-12 0.299E-12 0.124E-13   -.187E-13 0.150E-13 -.236E-14   0.166E-25 -.702E-24 -.139E-24   -.365E-13 0.169E-13 -.918E-14
   0.190E-12 0.200E-13 0.293E-12   0.287E-13 -.162E-13 0.374E-14   -.111E-23 0.167E-23 -.190E-23   -.433E-13 0.173E-13 0.204E-13
   -.950E-13 0.300E-12 0.293E-12   -.162E-13 -.151E-13 0.356E-14   0.811E-24 -.313E-24 -.174E-23   -.281E-13 0.193E-13 0.272E-13
 -----------------------------------------------------------------------------------------------
   0.200E-12 0.638E-12 0.610E-12   -.101E-14 -.244E-14 0.276E-14   0.239E-24 -.912E-24 -.353E-23   -.136E-12 0.696E-13 0.404E-13
 
 
 POSITION                                       TOTAL-FORCE (eV/Angst)
 -----------------------------------------------------------------------------------
      0.00000      0.00000      0.00000        -0.000000     -0.000000      0.000000
      1.87617      1.87617      0.00000         0.000000      0.000000      0.000000
      1.87617      0.00000      1.87617         0.000000      0.000000      0.000000
      0.00000      1.87617      1.87617        -0.000000     -0.000000     -0.000000
 -----------------------------------------------------------------------------------
    total drift:                                0.000000      0.000000      0.000000


--------------------------------------------------------------------------------------------------------



  FREE ENERGIE OF THE ION-ELECTRON SYSTEM (eV)
  ---------------------------------------------------
  free  energy   TOTEN  =       -14.78085281 eV

  energy  without entropy=      -14.78364186  energy(sigma->0) =      -14.78178249
 


--------------------------------------------------------------------------------------------------------


    POTLOK:  cpu time    0.0108: real time    0.0108


--------------------------------------------------------------------------------------------------------


 writing wavefunctions
     LOOP+:  cpu time    2.1748: real time    2.1935
    4ORBIT:  cpu time    0.0000: real time    0.0000

 total amount of memory used by VASP MPI-rank0    48650. kBytes
=======================================================================

   base      :      30000. kBytes
   nonl-proj :       3628. kBytes
   grid      :       1806. kBytes
   one-center:         62. kBytes
   wavefun   :      13154. kBytes
 
  
  
 General timing and accounting informations for this job:
 ========================================================
  
                  Total CPU time used (sec):        2.369
                            User time (sec):        2.337
                          System time (sec):        0.032
                         Elapsed time (sec):        2.376
  
                   Maximum memory used (kb):       54780.
                   Average memory used (kb):          N/A
  
                          Minor page faults:         7287
                          Major page faults:            0
                 Voluntary context switches:           27
