unknown system                          
   1.00000000000000     
     3.635000    0.000000    0.000000
     0.000000    3.635000    0.000000
     0.000000    0.000000    3.635000
   Pd   Ir   Pt   Cu
     1     1     1     1
Direct
  0.000000  0.000000  0.000000
  0.500000  0.500000  0.000000
  0.500000  0.000000  0.500000
  0.000000  0.500000  0.500000
 
   32   32   32
  297.02      284.89      253.35      212.91      171.96      133.29      97.108      65.295      41.414      27.107    
  19.754      15.380      12.901      11.616      10.939      10.550      10.409      10.550      10.939      11.616    
  12.901      15.380      19.754      27.107      41.414      65.295      97.108      133.29      171.96      212.91    
  253.35      284.89      285.05      273.47      243.33      204.56      165.17      127.93      93.184      62.809    
  40.156      26.644      19.625      15.403      13.011      11.772      11.117      10.742      10.606      10.742    
  11.117      11.772      13.011      15.403      19.625      26.644      40.156      62.809      93.184      127.93    
  165.17      204.56      243.33      273.47      253.47      243.31      216.74      182.29      146.98      113.54    
  82.686      56.209      36.856      25.445      19.294      15.506      13.371      12.268      11.689      11.360    
  11.241      11.360      11.689      12.268      13.371      15.506      19.294      25.445      36.856      56.209    
  82.686      113.54      146.98      182.29      216.74      243.31      211.90      203.51      181.44      152.47    
  122.48      94.196      68.700      47.573      32.653      23.961      18.927      15.800      14.076      13.215    
  12.786      12.550      12.466      12.550      12.786      13.215      14.076      15.800      18.927      23.961    
  32.653      47.573      68.700      94.196      122.48      152.47      181.44      203.51      168.80      162.15    
  144.51      121.10      96.753      74.136      54.534      39.114      28.719      22.621      18.768      16.478    
  15.317      14.832      14.661      14.593      14.570      14.593      14.661      14.832      15.317      16.478    
  18.768      22.621      28.719      39.114      54.534      74.136      96.753      121.10      144.51      162.15    
  128.25      123.19      109.71      91.719      73.101      56.281      42.464      32.288      25.744      21.671    
  19.102      17.797      17.365      17.427      17.665      17.872      17.948      17.872      17.665      17.427    
  17.365      17.797      19.102      21.671      25.744      32.288      42.464      56.281      73.101      91.719    
  109.71      123.19      91.748      88.191      78.702      66.084      53.229      42.058      33.448      27.544    
  23.791      21.374      20.189      19.998      20.491      21.393      22.384      23.140      23.421      23.140    
  22.384      21.393      20.491      19.998      20.189      21.374      23.791      27.544      33.448      42.058    
  53.229      66.084      78.702      88.191      61.217      59.041      53.257      45.660      38.125      31.899    
  27.434      24.527      22.688      21.926      22.181      23.358      25.288      27.648      29.954      31.647    
  32.270      31.647      29.954      27.648      25.288      23.358      22.181      21.926      22.688      24.527    
  27.434      31.899      38.125      45.660      53.257      59.041      39.061      37.988      35.163      31.535    
  28.085      25.417      23.627      22.617      22.522      23.398      25.352      28.371      32.247      36.534    
  40.533      43.410      44.461      43.410      40.533      36.534      32.247      28.371      25.352      23.398    
  22.522      22.617      23.627      25.417      28.085      31.535      35.163      37.988      25.795      25.412    
  24.419      23.185      22.072      21.302      21.128      21.759      23.298      25.975      29.911      35.002    
  40.937      47.157      52.797      56.802      58.259      56.802      52.797      47.157      40.937      35.002    
  29.911      25.975      23.298      21.759      21.128      21.302      22.072      23.185      24.419      25.412    
  18.711      18.620      18.392      18.165      18.154      18.618      19.800      21.857      25.069      29.703    
  35.678      42.686      50.309      57.972      64.797      69.621      71.376      69.621      64.797      57.972    
  50.309      42.686      35.678      29.703      25.069      21.857      19.800      18.618      18.154      18.165    
  18.392      18.620      14.357      14.401      14.565      14.947      15.726      17.137      19.406      22.790    
  27.774      34.416      42.285      50.797      59.495      67.964      75.470      80.819      82.780      80.819    
  75.470      67.964      59.495      50.797      42.285      34.416      27.774      22.790      19.406      17.137    
  15.726      14.947      14.565      14.401      11.804      11.927      12.323      13.085      14.393      16.497    
  19.648      24.384      31.199      39.816      49.364      58.995      68.338      77.302      85.380      91.282    
  93.479      91.282      85.380      77.302      68.338      58.995      49.364      39.816      31.199      24.384    
  19.648      16.497      14.393      13.085      12.323      11.927      10.418      10.580      11.099      12.080    
  13.734      16.346      20.274      26.347      34.954      45.435      56.482      67.063      77.026      86.692    
  95.730      102.56      105.15      102.56      95.730      86.692      77.026      67.063      56.482      45.435    
  34.954      26.347      20.274      16.346      13.734      12.080      11.099      10.580      9.6524      9.8343    
  10.418      11.531      13.416      16.400      21.005      28.268      38.446      50.539      62.888      74.385    
  85.164      95.927      106.40      114.55      117.68      114.55      106.40      95.927      85.164      74.385    
  62.888      50.539      38.446      28.268      21.005      16.400      13.416      11.531      10.418      9.8343    
  9.2099      9.4028      10.024      11.217      13.251      16.478      21.572      29.678      40.958      54.181    
  67.473      79.721      91.298      103.17      115.03      124.40      128.03      124.40      115.03      103.17    
  91.298      79.721      67.473      54.181      40.958      29.678      21.572      16.478      13.251      11.217    
  10.024      9.4028      9.0518      9.2487      9.8841      11.107      13.193      16.509      21.784      30.197    
  41.877      55.510      69.154      81.701      93.619      105.97      118.41      128.29      132.12      128.29    
  118.41      105.97      93.619      81.701      69.154      55.510      41.877      30.197      21.784      16.509    
  13.193      11.107      9.8841      9.2487      9.2099      9.4028      10.024      11.217      13.251      16.478    
  21.572      29.678      40.958      54.181      67.473      79.721      91.298      103.17      115.03      124.40    
  128.03      124.40      115.03      103.17      91.298      79.721      67.473      54.181      40.958      29.678    
  21.572      16.478      13.251      11.217      10.024      9.4028      9.6524      9.8343      10.418      11.531    
  13.416      16.400      21.005      28.268      38.446      50.539      62.888      74.385      85.164      95.927    
  106.40      114.55      117.68      114.55      106.40      95.927      85.164      74.385      62.888      50.539    
  38.446      28.268      21.005      16.400      13.416      11.531      10.418      9.8343      10.418      10.580    
  11.099      12.080      13.734      16.346      20.274      26.347      34.954      45.435      56.482      67.063    
  77.026      86.692      95.730      102.56      105.15      102.56      95.730      86.692      77.026      67.063    
  56.482      45.435      34.954      26.347      20.274      16.346      13.734      12.080      11.099      10.580    
  11.804      11.927      12.323      13.085      14.393      16.497      19.648      24.384      31.199      39.816    
  49.364      58.995      68.338      77.302      85.380      91.282      93.479      91.282      85.380      77.302    
  68.338      58.995      49.364      39.816      31.199      24.384      19.648      16.497      14.393      13.085    
  12.323      11.927      14.357      14.401      14.565      14.947      15.726      17.137      19.406      22.790    
  27.774      34.416      42.285      50.797      59.495      67.964      75.470      80.819      82.780      80.819    
  75.470      67.964      59.495      50.797      42.285      34.416      27.774      22.790      19.406      17.137    
  15.726      14.947      14.565      14.401      18.711      18.620      18.392      18.165      18.154      18.618    
  19.800      21.857      25.069      29.703      35.678      42.686      50.309      57.972      64.797      69.621    
  71.376      69.621      64.797      57.972      50.309      42.686      35.678      29.703      25.069      21.857    
  19.800      18.618      18.154      18.165      18.392      18.620      25.795      25.412      24.419      23.185    
  22.072      21.302      21.128      21.759      23.298      25.975      29.911      35.002      40.937      47.157    
  52.797      56.802      58.259      56.802      52.797      47.157      40.937      35.002      29.911      25.975    
  23.298      21.759      21.128      21.302      22.072      23.185      24.419      25.412      39.061      37.988    
  35.163      31.535      28.085      25.417      23.627      22.617      22.522      23.398      25.352      28.371    
  32.247      36.534      40.533      43.410      44.461      43.410      40.533      36.534      32.247      28.371    
  25.352      23.398      22.522      22.617      23.627      25.417      28.085      31.535      35.163      37.988    
  61.217      59.041      53.257      45.660      38.125      31.899      27.434      24.527      22.688      21.926    
  22.181      23.358      25.288      27.648      29.954      31.647      32.270      31.647      29.954      27.648    
  25.288      23.358      22.181      21.926      22.688      24.527      27.434      31.899      38.125      45.660    
  53.257      59.041      91.748      88.191      78.702      66.084      53.229      42.058      33.448      27.544    
  23.791      21.374      20.189      19.998      20.491      21.393      22.384      23.140      23.421      23.140    
  22.384      21.393      20.491      19.998      20.189      21.374      23.791      27.544      33.448      42.058    
  53.229      66.084      78.702      88.191      128.25      123.19      109.71      91.719      73.101      56.281    
  42.464      32.288      25.744      21.671      19.102      17.797      17.365      17.427      17.665      17.872    
  17.948      17.872      17.665      17.427      17.365      17.797      19.102      21.671      25.744      32.288    
  42.464      56.281      73.101      91.719      109.71      123.19      168.80      162.15      144.51      121.10    
  96.753      74.136      54.534      39.114      28.719      22.621      18.768      16.478      15.317      14.832    
  14.661      14.593      14.570      14.593      14.661      14.832      15.317      16.478      18.768      22.621    
  28.719      39.114      54.534      74.136      96.753      121.10      144.51      162.15      211.90      203.51    
  181.44      152.47      122.48      94.196      68.700      47.573      32.653      23.961      18.927      15.800    
  14.076      13.215      12.786      12.550      12.466      12.550      12.786      13.215      14.076      15.800    
  18.927      23.961      32.653      47.573      68.700      94.196      122.48      152.47      181.44      203.51    
  253.47      243.31      216.74      182.29      146.98      113.54      82.686      56.209      36.856      25.445    
  19.294      15.506      13.371      12.268      11.689      11.360      11.241      11.360      11.689      12.268    
  13.371      15.506      19.294      25.445      36.856      56.209      82.686      113.54      146.98      182.29    
  216.74      243.31      285.05      273.47      243.33      204.56      165.17      127.93      93.184      62.809    
  40.156      26.644      19.625      15.403      13.011      11.772      11.117      10.742      10.606      10.742    
  11.117      11.772      13.011      15.403      19.625      26.644      40.156      62.809      93.184      127.93    
  165.17      204.56      243.33      273.47      285.16      273.60      243.50      204.77      165.37      128.09    
  93.274      62.841      40.155      26.634      19.617      15.400      13.014      11.778      11.125      10.752    
  10.617      10.752      11.125      11.778      13.014      15.400      19.617      26.634      40.155      62.841    
  93.274      128.09      165.37      204.77      243.50      273.60      274.05      262.99      234.16      196.95    
  158.98      123.02      89.562      60.494      38.971      26.197      19.492      15.423      13.122      11.929    
  11.299      10.939      10.809      10.939      11.299      11.929      13.122      15.423      19.492      26.197    
  38.971      60.494      89.562      123.02      158.98      196.95      234.16      262.99      244.59      234.83    
  209.26      176.00      141.80      109.40      79.620      54.258      35.864      25.065      19.170      15.522    
  13.471      12.412      11.857      11.541      11.428      11.541      11.857      12.412      13.471      15.522    
  19.170      25.065      35.864      54.258      79.620      109.40      141.80      176.00      209.26      234.83    
  205.44      197.32      175.90      147.73      118.51      90.996      66.343      46.087      31.900      23.655    
  18.811      15.806      14.155      13.333      12.923      12.699      12.619      12.699      12.923      13.333    
  14.155      15.806      18.811      23.655      31.900      46.087      66.343      90.996      118.51      147.73    
  175.90      197.32      164.28      157.79      140.56      117.68      93.863      71.818      52.851      38.067    
  28.179      22.361      18.652      16.461      15.357      14.901      14.745      14.685      14.665      14.685    
  14.745      14.901      15.357      16.461      18.652      22.361      28.179      38.067      52.851      71.818    
  93.863      117.68      140.56      157.79      124.99      120.04      106.84      89.238      71.038      54.668    
  41.321      31.579      25.345      21.430      18.971      17.735      17.340      17.417      17.662      17.869    
  17.946      17.869      17.662      17.417      17.340      17.735      18.971      21.430      25.345      31.579    
  41.321      54.668      71.038      89.238      106.84      120.04      89.350      85.878      76.616      64.310    
  51.799      40.978      32.695      27.051      23.448      21.132      20.018      19.865      20.365      21.249    
  22.212      22.945      23.217      22.945      22.212      21.249      20.365      19.865      20.018      21.132    
  23.448      27.051      32.695      40.978      51.799      64.310      76.616      85.878      59.569      57.457    
  51.848      44.487      37.207      31.213      26.932      24.135      22.369      21.662      21.944      23.106    
  24.984      27.267      29.493      31.125      31.726      31.125      29.493      27.267      24.984      23.106    
  21.944      21.662      22.369      24.135      26.932      31.213      37.207      44.487      51.848      57.457    
  38.106      37.072      34.354      30.865      27.552      24.987      23.250      22.277      22.210      23.089    
  25.004      27.944      31.703      35.848      39.706      42.477      43.489      42.477      39.706      35.848    
  31.703      27.944      25.004      23.089      22.210      22.277      23.250      24.987      27.552      30.865    
  34.354      37.072      25.354      24.986      24.032      22.842      21.755      20.996      20.829      21.455    
  22.972      25.588      29.427      34.385      40.152      46.175      51.620      55.477      56.878      55.477    
  51.620      46.175      40.152      34.385      29.427      25.588      22.972      21.455      20.829      20.996    
  21.755      22.842      24.032      24.986      18.517      18.426      18.199      17.972      17.955      18.404    
  19.559      21.570      24.701      29.224      35.067      41.920      49.352      56.786      63.369      68.002    
  69.684      68.002      63.369      56.786      49.352      41.920      35.067      29.224      24.701      21.570    
  19.559      18.404      17.955      17.972      18.199      18.426      14.295      14.337      14.494      14.863    
  15.617      16.989      19.201      22.496      27.353      33.854      41.587      49.956      58.468      66.682    
  73.893      78.994      80.856      78.994      73.893      66.682      58.468      49.956      41.587      33.854    
  27.353      22.496      19.201      16.989      15.617      14.863      14.494      14.337      11.833      11.952    
  12.336      13.074      14.342      16.390      19.461      24.066      30.722      39.191      48.625      58.145    
  67.308      75.971      83.660      89.219      91.279      89.219      83.660      75.971      67.308      58.145    
  48.625      39.191      30.722      24.066      19.461      16.390      14.342      13.074      12.336      11.952    
  10.503      10.660      11.162      12.114      13.719      16.264      20.088      25.998      34.426      44.766    
  55.731      66.230      75.997      85.269      93.767      100.12      102.51      100.12      93.767      85.269    
  75.997      66.230      55.731      44.766      34.426      25.998      20.088      16.264      13.719      12.114    
  11.162      10.660      9.7717      9.9477      10.512      11.591      13.424      16.332      20.813      27.889    
  37.877      49.840      62.134      73.560      84.094      94.334      104.08      111.58      114.45      111.58    
  104.08      94.334      84.094      73.560      62.134      49.840      37.877      27.889      20.813      16.332    
  13.424      11.591      10.512      9.9477      9.3504      9.5370      10.138      11.295      13.272      16.420    
  21.374      29.279      40.362      53.462      66.714      78.887      90.167      101.40      112.38      120.96    
  124.27      120.96      112.38      101.40      90.167      78.887      66.714      53.462      40.362      29.279    
  21.374      16.420      13.272      11.295      10.138      9.5370      9.2001      9.3905      10.005      11.191    
  13.220      16.454      21.583      29.790      41.271      54.785      68.392      80.861      92.459      104.12    
  115.61      124.65      128.15      124.65      115.61      104.12      92.459      80.861      68.392      54.785    
  41.271      29.790      21.583      16.454      13.220      11.191      10.005      9.3905      9.3504      9.5370    
  10.138      11.295      13.272      16.420      21.374      29.279      40.362      53.462      66.714      78.887    
  90.167      101.40      112.38      120.96      124.27      120.96      112.38      101.40      90.167      78.887    
  66.714      53.462      40.362      29.279      21.374      16.420      13.272      11.295      10.138      9.5370    
  9.7717      9.9477      10.512      11.591      13.424      16.332      20.813      27.889      37.877      49.840    
  62.134      73.560      84.094      94.334      104.08      111.58      114.45      111.58      104.08      94.334    
  84.094      73.560      62.134      49.840      37.877      27.889      20.813      16.332      13.424      11.591    
  10.512      9.9477      10.503      10.660      11.162      12.114      13.719      16.264      20.088      25.998    
  34.426      44.766      55.731      66.230      75.997      85.269      93.767      100.12      102.51      100.12    
  93.767      85.269      75.997      66.230      55.731      44.766      34.426      25.998      20.088      16.264    
  13.719      12.114      11.162      10.660      11.833      11.952      12.336      13.074      14.342      16.390    
  19.461      24.066      30.722      39.191      48.625      58.145      67.308      75.971      83.660      89.219    
  91.279      89.219      83.660      75.971      67.308      58.145      48.625      39.191      30.722      24.066    
  19.461      16.390      14.342      13.074      12.336      11.952      14.295      14.337      14.494      14.863    
  15.617      16.989      19.201      22.496      27.353      33.854      41.587      49.956      58.468      66.682    
  73.893      78.994      80.856      78.994      73.893      66.682      58.468      49.956      41.587      33.854    
  27.353      22.496      19.201      16.989      15.617      14.863      14.494      14.337      18.517      18.426    
  18.199      17.972      17.955      18.404      19.559      21.570      24.701      29.224      35.067      41.920    
  49.352      56.786      63.369      68.002      69.684      68.002      63.369      56.786      49.352      41.920    
  35.067      29.224      24.701      21.570      19.559      18.404      17.955      17.972      18.199      18.426    
  25.354      24.986      24.032      22.842      21.755      20.996      20.829      21.455      22.972      25.588    
  29.427      34.385      40.152      46.175      51.620      55.477      56.878      55.477      51.620      46.175    
  40.152      34.385      29.427      25.588      22.972      21.455      20.829      20.996      21.755      22.842    
  24.032      24.986      38.106      37.072      34.354      30.865      27.552      24.987      23.250      22.277    
  22.210      23.089      25.004      27.944      31.703      35.848      39.706      42.477      43.489      42.477    
  39.706      35.848      31.703      27.944      25.004      23.089      22.210      22.277      23.250      24.987    
  27.552      30.865      34.354      37.072      59.569      57.457      51.848      44.487      37.207      31.213    
  26.932      24.135      22.369      21.662      21.944      23.106      24.984      27.267      29.493      31.125    
  31.726      31.125      29.493      27.267      24.984      23.106      21.944      21.662      22.369      24.135    
  26.932      31.213      37.207      44.487      51.848      57.457      89.350      85.878      76.616      64.310    
  51.799      40.978      32.695      27.051      23.448      21.132      20.018      19.865      20.365      21.249    
  22.212      22.945      23.217      22.945      22.212      21.249      20.365      19.865      20.018      21.132    
  23.448      27.051      32.695      40.978      51.799      64.310      76.616      85.878      124.99      120.04    
  106.84      89.238      71.038      54.668      41.321      31.579      25.345      21.430      18.971      17.735    
  17.340      17.417      17.662      17.869      17.946      17.869      17.662      17.417      17.340      17.735    
  18.971      21.430      25.345      31.579      41.321      54.668      71.038      89.238      106.84      120.04    
  164.28      157.79      140.56      117.68      93.863      71.818      52.851      38.067      28.179      22.361    
  18.652      16.461      15.357      14.901      14.745      14.685      14.665      14.685      14.745      14.901    
  15.357      16.461      18.652      22.361      28.179      38.067      52.851      71.818      93.863      117.68    
  140.56      157.79      205.44      197.32      175.90      147.73      118.51      90.996      66.343      46.087    
  31.900      23.655      18.811      15.806      14.155      13.333      12.923      12.699      12.619      12.699    
  12.923      13.333      14.155      15.806      18.811      23.655      31.900      46.087      66.343      90.996    
  118.51      147.73      175.90      197.32      244.59      234.83      209.26      176.00      141.80      109.40    
  79.620      54.258      35.864      25.065      19.170      15.522      13.471      12.412      11.857      11.541    
  11.428      11.541      11.857      12.412      13.471      15.522      19.170      25.065      35.864      54.258    
  79.620      109.40      141.80      176.00      209.26      234.83      274.05      262.99      234.16      196.95    
  158.98      123.02      89.562      60.494      38.971      26.197      19.492      15.423      13.122      11.929    
  11.299      10.939      10.809      10.939      11.299      11.929      13.122      15.423      19.492      26.197    
  38.971      60.494      89.562      123.02      158.98      196.95      234.16      262.99      253.78      243.69    
  217.29      182.96      147.63      114.04      82.955      56.291      36.837      25.402      19.261      15.489    
  13.367      12.273      11.699      11.372      11.254      11.372      11.699      12.273      13.367      15.489    
  19.261      25.402      36.837      56.291      82.955      114.04      147.63      182.96      217.29      243.69    
  244.80      235.09      209.64      176.46      142.25      109.73      79.803      54.311      35.847      25.033    
  19.145      15.508      13.465      12.412      11.859      11.545      11.431      11.545      11.859      12.412    
  13.465      15.508      19.145      25.033      35.847      54.311      79.803      109.73      142.25      176.46    
  209.64      235.09      220.64      211.93      188.98      158.87      127.64      98.096      71.326      49.036    
  33.242      24.067      18.846      15.596      13.783      12.855      12.372      12.099      12.001      12.099    
  12.372      12.855      13.783      15.596      18.846      24.067      33.242      49.036      71.326      98.096    
  127.64      158.87      188.98      211.93      187.57      180.16      160.54      134.56      107.51      82.193    
  59.928      42.096      29.903      22.835      18.508      15.848      14.403      13.694      13.348      13.161    
  13.095      13.161      13.348      13.694      14.403      15.848      18.508      22.835      29.903      42.096    
  59.928      82.193      107.51      134.56      160.54      180.16      151.36      145.33      129.30      107.93    
  85.726      65.380      48.245      35.243      26.733      21.647      18.348      16.433      15.491      15.121    
  15.011      14.978      14.967      14.978      15.011      15.121      15.491      16.433      18.348      21.647    
  26.733      35.243      48.245      65.380      85.726      107.93      129.30      145.33      115.46      110.85    
  98.525      82.092      65.181      50.165      38.185      29.657      24.255      20.766      18.617      17.577    
  17.288      17.412      17.676      17.892      17.970      17.892      17.676      17.412      17.288      17.577    
  18.617      20.766      24.255      29.657      38.185      50.165      65.181      82.092      98.525      110.85    
  82.339      79.127      70.565      59.216      47.756      37.974      30.629      25.700      22.498      20.467    
  19.550      19.505      20.032      20.874      21.767      22.439      22.688      22.439      21.767      20.874    
  20.032      19.505      19.550      20.467      22.498      25.700      30.629      37.974      47.756      59.216    
  70.565      79.127      54.838      52.919      47.831      41.179      34.644      29.321      25.550      23.044    
  21.486      20.935      21.293      22.416      24.157      26.237      28.249      29.717      30.257      29.717    
  28.249      26.237      24.157      22.416      21.293      20.935      21.486      23.044      25.550      29.321    
  34.644      41.179      47.831      52.919      35.432      34.513      32.102      29.013      26.082      23.797    
  22.201      21.336      21.345      22.234      24.043      26.761      30.199      33.960      37.439      39.926    
  40.832      39.926      37.439      33.960      30.199      26.761      24.043      22.234      21.345      21.336    
  22.201      23.797      26.082      29.013      32.102      34.513      24.139      23.814      22.966      21.890    
  20.868      20.150      20.002      20.616      22.067      24.509      28.071      32.656      37.956      43.445    
  48.364      51.824      53.076      51.824      48.364      43.445      37.956      32.656      28.071      24.509    
  22.067      20.616      20.002      20.150      20.868      21.890      22.966      23.814      17.961      17.874    
  17.655      17.434      17.409      17.819      18.893      20.779      23.678      27.874      33.331      39.739    
  46.642      53.457      59.401      63.534      65.024      63.534      59.401      53.457      46.642      39.739    
  33.331      27.874      23.678      20.779      18.893      17.819      17.409      17.434      17.655      17.874    
  14.104      14.143      14.287      14.625      15.317      16.581      18.636      21.680      26.165      32.244    
  39.564      47.513      55.516      63.063      69.515      73.984      75.598      73.984      69.515      63.063    
  55.516      47.513      39.564      32.244      26.165      21.680      18.636      16.581      15.317      14.625    
  14.287      14.143      11.876      11.987      12.343      13.025      14.196      16.089      18.940      23.175    