unknown system                          
   1.00000000000000     
     3.635000    0.000000    0.000000
     0.000000    3.635000    0.000000
     0.000000    0.000000    3.635000
   Pd   Ir   Pt   Cu
     1     1     1     1
Direct
  0.000000  0.000000  0.000000
  0.500000  0.500000  0.000000
  0.500000  0.000000  0.500000
  0.000000  0.500000  0.500000
 
   32   32   32
 0.29702276654E+03 0.28488984038E+03 0.25335001263E+03 0.21290889719E+03 0.17195691627E+03
 0.13328806794E+03 0.97107983281E+02 0.65294571057E+02 0.41414178747E+02 0.27107388011E+02
 0.19753748407E+02 0.15379960218E+02 0.12900937478E+02 0.11616429685E+02 0.10938813394E+02
 0.10550221493E+02 0.10409472867E+02 0.10550221493E+02 0.10938813394E+02 0.11616429685E+02
 0.12900937478E+02 0.15379960218E+02 0.19753748407E+02 0.27107388011E+02 0.41414178747E+02
 0.65294571057E+02 0.97107983281E+02 0.13328806794E+03 0.17195691627E+03 0.21290889719E+03
 0.25335001263E+03 0.28488984038E+03 0.28505369526E+03 0.27347402447E+03 0.24332691049E+03
 0.20455847001E+03 0.16516800313E+03 0.12792753151E+03 0.93183713150E+02 0.62808963096E+02
 0.40156105372E+02 0.26643936702E+02 0.19624712632E+02 0.15402707991E+02 0.13011497544E+02
 0.11771615772E+02 0.11117069593E+02 0.10742027583E+02 0.10606348282E+02 0.10742027583E+02
 0.11117069593E+02 0.11771615772E+02 0.13011497544E+02 0.15402707991E+02 0.19624712632E+02
 0.26643936702E+02 0.40156105372E+02 0.62808963096E+02 0.93183713150E+02 0.12792753151E+03
 0.16516800313E+03 0.20455847001E+03 0.24332691049E+03 0.27347402447E+03 0.25346852379E+03
 0.24330976371E+03 0.21674259829E+03 0.18229088914E+03 0.14697820397E+03 0.11354384690E+03
 0.82685560162E+02 0.56209135917E+02 0.36856188265E+02 0.25445402222E+02 0.19294433301E+02
 0.15505686955E+02 0.13370884961E+02 0.12268046117E+02 0.11689232761E+02 0.11359885627E+02
 0.11241168204E+02 0.11359885627E+02 0.11689232761E+02 0.12268046117E+02 0.13370884961E+02
 0.15505686955E+02 0.19294433301E+02 0.25445402222E+02 0.36856188265E+02 0.56209135917E+02
 0.82685560162E+02 0.11354384690E+03 0.14697820397E+03 0.18229088914E+03 0.21674259829E+03
 0.24330976371E+03 0.21189514142E+03 0.20351179935E+03 0.18143560032E+03 0.15246616190E+03
 0.12247644457E+03 0.94195635543E+02 0.68700451215E+02 0.47572973858E+02 0.32652552269E+02
 0.23960925086E+02 0.18926541169E+02 0.15799561423E+02 0.14076143834E+02 0.13215370303E+02
 0.12785684070E+02 0.12549914790E+02 0.12465554045E+02 0.12549914790E+02 0.12785684070E+02
 0.13215370303E+02 0.14076143834E+02 0.15799561423E+02 0.18926541169E+02 0.23960925086E+02
 0.32652552269E+02 0.47572973858E+02 0.68700451215E+02 0.94195635543E+02 0.12247644457E+03
 0.15246616190E+03 0.18143560032E+03 0.20351179935E+03 0.16879990214E+03 0.16214970649E+03
 0.14450809612E+03 0.12110142297E+03 0.96752515682E+02 0.74135881335E+02 0.54533989283E+02
 0.39113583743E+02 0.28718519646E+02 0.22620524755E+02 0.18767519702E+02 0.16477792705E+02
 0.15317369600E+02 0.14831895087E+02 0.14660973537E+02 0.14593292500E+02 0.14570021300E+02
 0.14593292500E+02 0.14660973537E+02 0.14831895087E+02 0.15317369600E+02 0.16477792705E+02
 0.18767519702E+02 0.22620524755E+02 0.28718519646E+02 0.39113583743E+02 0.54533989283E+02
 0.74135881335E+02 0.96752515682E+02 0.12110142297E+03 0.14450809612E+03 0.16214970649E+03
 0.12824993797E+03 0.12319159147E+03 0.10970601185E+03 0.91719270087E+02 0.73100573613E+02
 0.56280854792E+02 0.42463585224E+02 0.32287970344E+02 0.25744182419E+02 0.21671141905E+02
 0.19102358770E+02 0.17796636329E+02 0.17365181585E+02 0.17426560369E+02 0.17665362914E+02
 0.17871664680E+02 0.17948345735E+02 0.17871664680E+02 0.17665362914E+02 0.17426560369E+02
 0.17365181585E+02 0.17796636329E+02 0.19102358770E+02 0.21671141905E+02 0.25744182419E+02
 0.32287970344E+02 0.42463585224E+02 0.56280854792E+02 0.73100573613E+02 0.91719270087E+02
 0.10970601185E+03 0.12319159147E+03 0.91747969456E+02 0.88191082923E+02 0.78701957268E+02
 0.66084434298E+02 0.53228892718E+02 0.42057819044E+02 0.33448024314E+02 0.27543841855E+02
 0.23790694101E+02 0.21374407355E+02 0.20188771961E+02 0.19997841722E+02 0.20491181600E+02
 0.21392857383E+02 0.22383996379E+02 0.23140128529E+02 0.23421242971E+02 0.23140128529E+02
 0.22383996379E+02 0.21392857383E+02 0.20491181600E+02 0.19997841722E+02 0.20188771961E+02
 0.21374407355E+02 0.23790694101E+02 0.27543841855E+02 0.33448024314E+02 0.42057819044E+02
 0.53228892718E+02 0.66084434298E+02 0.78701957268E+02 0.88191082923E+02 0.61217269180E+02
 0.59040517864E+02 0.53257403870E+02 0.45659518401E+02 0.38125434389E+02 0.31899156308E+02
 0.27433614554E+02 0.24526538662E+02 0.22687921920E+02 0.21925560393E+02 0.22180941822E+02
 0.23357899764E+02 0.25287867101E+02 0.27647547645E+02 0.29953565644E+02 0.31646944200E+02
 0.32270435634E+02 0.31646944200E+02 0.29953565644E+02 0.27647547645E+02 0.25287867101E+02
 0.23357899764E+02 0.22180941822E+02 0.21925560393E+02 0.22687921920E+02 0.24526538662E+02
 0.27433614554E+02 0.31899156308E+02 0.38125434389E+02 0.45659518401E+02 0.53257403870E+02
 0.59040517864E+02 0.39061428067E+02 0.37987958039E+02 0.35163199165E+02 0.31534961173E+02
 0.28085448644E+02 0.25417365037E+02 0.23627272946E+02 0.22616774802E+02 0.22522151379E+02
 0.23398370355E+02 0.25351852593E+02 0.28371046860E+02 0.32247177126E+02 0.36534154535E+02
 0.40533243731E+02 0.43409538963E+02 0.44460567700E+02 0.43409538963E+02 0.40533243731E+02
 0.36534154535E+02 0.32247177126E+02 0.28371046860E+02 0.25351852593E+02 0.23398370355E+02
 0.22522151379E+02 0.22616774802E+02 0.23627272946E+02 0.25417365037E+02 0.28085448644E+02
 0.31534961173E+02 0.35163199165E+02 0.37987958039E+02 0.25795044154E+02 0.25411955132E+02
 0.24418977934E+02 0.23185055252E+02 0.22071942864E+02 0.21301624521E+02 0.21128100869E+02
 0.21758901027E+02 0.23298303652E+02 0.25975470409E+02 0.29911486839E+02 0.35001899777E+02
 0.40937314943E+02 0.47156575085E+02 0.52797009099E+02 0.56802370561E+02 0.58259355068E+02
 0.56802370561E+02 0.52797009099E+02 0.47156575085E+02 0.40937314943E+02 0.35001899777E+02
 0.29911486839E+02 0.25975470409E+02 0.23298303652E+02 0.21758901027E+02 0.21128100869E+02
 0.21301624521E+02 0.22071942864E+02 0.23185055252E+02 0.24418977934E+02 0.25411955132E+02
 0.18711315357E+02 0.18619776802E+02 0.18391701118E+02 0.18164565315E+02 0.18153594649E+02
 0.18617693980E+02 0.19800277809E+02 0.21856673367E+02 0.25068917190E+02 0.29702746203E+02
 0.35678243807E+02 0.42686108993E+02 0.50308508986E+02 0.57971989383E+02 0.64796846297E+02
 0.69620775800E+02 0.71375634299E+02 0.69620775800E+02 0.64796846297E+02 0.57971989383E+02
 0.50308508986E+02 0.42686108993E+02 0.35678243807E+02 0.29702746203E+02 0.25068917190E+02
 0.21856673367E+02 0.19800277809E+02 0.18617693980E+02 0.18153594649E+02 0.18164565315E+02
 0.18391701118E+02 0.18619776802E+02 0.14356505661E+02 0.14400808142E+02 0.14564525053E+02
 0.14947232809E+02 0.15725817176E+02 0.17137068727E+02 0.19405788808E+02 0.22789732784E+02
 0.27774321564E+02 0.34415545707E+02 0.42284529393E+02 0.50797000937E+02 0.59495199690E+02
 0.67963896598E+02 0.75470363292E+02 0.80819395039E+02 0.82779818259E+02 0.80819395039E+02
 0.75470363292E+02 0.67963896598E+02 0.59495199690E+02 0.50797000937E+02 0.42284529393E+02
 0.34415545707E+02 0.27774321564E+02 0.22789732784E+02 0.19405788808E+02 0.17137068727E+02
 0.15725817176E+02 0.14947232809E+02 0.14564525053E+02 0.14400808142E+02 0.11803630325E+02
 0.11926833646E+02 0.12323144583E+02 0.13085259483E+02 0.14392583317E+02 0.16497387883E+02
 0.19648347150E+02 0.24383862239E+02 0.31199220587E+02 0.39815951201E+02 0.49364498410E+02
 0.58994947436E+02 0.68337865507E+02 0.77302003891E+02 0.85380456931E+02 0.91281880026E+02
 0.93479221882E+02 0.91281880026E+02 0.85380456931E+02 0.77302003891E+02 0.68337865507E+02
 0.58994947436E+02 0.49364498410E+02 0.39815951201E+02 0.31199220587E+02 0.24383862239E+02
 0.19648347150E+02 0.16497387883E+02 0.14392583317E+02 0.13085259483E+02 0.12323144583E+02
 0.11926833646E+02 0.10417607328E+02 0.10580160912E+02 0.11098662322E+02 0.12080369846E+02
 0.13733538801E+02 0.16346411115E+02 0.20274211471E+02 0.26347157714E+02 0.34953891522E+02
 0.45434949473E+02 0.56482198424E+02 0.67062566896E+02 0.77026386381E+02 0.86692416695E+02
 0.95729554279E+02 0.10256284069E+03 0.10515493426E+03 0.10256284069E+03 0.95729554279E+02
 0.86692416695E+02 0.77026386381E+02 0.67062566896E+02 0.56482198424E+02 0.45434949473E+02
 0.34953891522E+02 0.26347157714E+02 0.20274211471E+02 0.16346411115E+02 0.13733538801E+02
 0.12080369846E+02 0.11098662322E+02 0.10580160912E+02 0.96523864756E+01 0.98343229620E+01
 0.10417711641E+02 0.11530580397E+02 0.13415898189E+02 0.16399521253E+02 0.21005364563E+02
 0.28267613364E+02 0.38445795367E+02 0.50538727153E+02 0.62888431166E+02 0.74385099484E+02
 0.85163907616E+02 0.95927281530E+02 0.10639752884E+03 0.11454543652E+03 0.11767861010E+03
 0.11454543652E+03 0.10639752884E+03 0.95927281530E+02 0.85163907616E+02 0.74385099484E+02
 0.62888431166E+02 0.50538727153E+02 0.38445795367E+02 0.28267613364E+02 0.21005364563E+02
 0.16399521253E+02 0.13415898189E+02 0.11530580397E+02 0.10417711641E+02 0.98343229620E+01
 0.92098871294E+01 0.94027764930E+01 0.10024124197E+02 0.11217410764E+02 0.13250651604E+02
 0.16477732197E+02 0.21572390852E+02 0.29677696338E+02 0.40957936693E+02 0.54180659081E+02
 0.67473311197E+02 0.79720776539E+02 0.91297970075E+02 0.10317108563E+03 0.11502873584E+03
 0.12440437896E+03 0.12803423104E+03 0.12440437896E+03 0.11502873584E+03 0.10317108563E+03
 0.91297970075E+02 0.79720776539E+02 0.67473311197E+02 0.54180659081E+02 0.40957936693E+02
 0.29677696338E+02 0.21572390852E+02 0.16477732197E+02 0.13250651604E+02 0.11217410764E+02
 0.10024124197E+02 0.94027764930E+01 0.90517515968E+01 0.92487154160E+01 0.98840643716E+01
 0.11106672663E+02 0.13193283423E+02 0.16508508224E+02 0.21783975573E+02 0.30196813779E+02
 0.41876704894E+02 0.55510230718E+02 0.69154114533E+02 0.81700835652E+02 0.93618802747E+02
 0.10596696647E+03 0.11840653057E+03 0.12828909011E+03 0.13212247005E+03 0.12828909011E+03
 0.11840653057E+03 0.10596696647E+03 0.93618802747E+02 0.81700835652E+02 0.69154114533E+02
 0.55510230718E+02 0.41876704894E+02 0.30196813779E+02 0.21783975573E+02 0.16508508224E+02
 0.13193283423E+02 0.11106672663E+02 0.98840643716E+01 0.92487154160E+01 0.92098871294E+01
 0.94027764930E+01 0.10024124197E+02 0.11217410764E+02 0.13250651604E+02 0.16477732197E+02
 0.21572390852E+02 0.29677696338E+02 0.40957936693E+02 0.54180659081E+02 0.67473311197E+02
 0.79720776539E+02 0.91297970075E+02 0.10317108563E+03 0.11502873584E+03 0.12440437896E+03
 0.12803423104E+03 0.12440437896E+03 0.11502873584E+03 0.10317108563E+03 0.91297970075E+02
 0.79720776539E+02 0.67473311197E+02 0.54180659081E+02 0.40957936693E+02 0.29677696338E+02
 0.21572390852E+02 0.16477732197E+02 0.13250651604E+02 0.11217410764E+02 0.10024124197E+02
 0.94027764930E+01 0.96523864756E+01 0.98343229620E+01 0.10417711641E+02 0.11530580397E+02
 0.13415898189E+02 0.16399521253E+02 0.21005364563E+02 0.28267613364E+02 0.38445795367E+02
 0.50538727153E+02 0.62888431166E+02 0.74385099484E+02 0.85163907616E+02 0.95927281530E+02
 0.10639752884E+03 0.11454543652E+03 0.11767861010E+03 0.11454543652E+03 0.10639752884E+03
 0.95927281530E+02 0.85163907616E+02 0.74385099484E+02 0.62888431166E+02 0.50538727153E+02
 0.38445795367E+02 0.28267613364E+02 0.21005364563E+02 0.16399521253E+02 0.13415898189E+02
 0.11530580397E+02 0.10417711641E+02 0.98343229620E+01 0.10417607328E+02 0.10580160912E+02
 0.11098662322E+02 0.12080369846E+02 0.13733538801E+02 0.16346411115E+02 0.20274211471E+02
 0.26347157714E+02 0.34953891522E+02 0.45434949473E+02 0.56482198424E+02 0.67062566896E+02
 0.77026386381E+02 0.86692416695E+02 0.95729554279E+02 0.10256284069E+03 0.10515493426E+03
 0.10256284069E+03 0.95729554279E+02 0.86692416695E+02 0.77026386381E+02 0.67062566896E+02
 0.56482198424E+02 0.45434949473E+02 0.34953891522E+02 0.26347157714E+02 0.20274211471E+02
 0.16346411115E+02 0.13733538801E+02 0.12080369846E+02 0.11098662322E+02 0.10580160912E+02
 0.11803630325E+02 0.11926833646E+02 0.12323144583E+02 0.13085259483E+02 0.14392583317E+02
 0.16497387883E+02 0.19648347150E+02 0.24383862239E+02 0.31199220587E+02 0.39815951201E+02
 0.49364498410E+02 0.58994947436E+02 0.68337865507E+02 0.77302003891E+02 0.85380456931E+02
 0.91281880026E+02 0.93479221882E+02 0.91281880026E+02 0.85380456931E+02 0.77302003891E+02
 0.68337865507E+02 0.58994947436E+02 0.49364498410E+02 0.39815951201E+02 0.31199220587E+02
 0.24383862239E+02 0.19648347150E+02 0.16497387883E+02 0.14392583317E+02 0.13085259483E+02
 0.12323144583E+02 0.11926833646E+02 0.14356505661E+02 0.14400808142E+02 0.14564525053E+02
 0.14947232809E+02 0.15725817176E+02 0.17137068727E+02 0.19405788808E+02 0.22789732784E+02
 0.27774321564E+02 0.34415545707E+02 0.42284529393E+02 0.50797000937E+02 0.59495199690E+02
 0.67963896598E+02 0.75470363292E+02 0.80819395039E+02 0.82779818259E+02 0.80819395039E+02
 0.75470363292E+02 0.67963896598E+02 0.59495199690E+02 0.50797000937E+02 0.42284529393E+02
 0.34415545707E+02 0.27774321564E+02 0.22789732784E+02 0.19405788808E+02 0.17137068727E+02
 0.15725817176E+02 0.14947232809E+02 0.14564525053E+02 0.14400808142E+02 0.18711315357E+02
 0.18619776802E+02 0.18391701118E+02 0.18164565315E+02 0.18153594649E+02 0.18617693980E+02
 0.19800277809E+02 0.21856673367E+02 0.25068917190E+02 0.29702746203E+02 0.35678243807E+02
 0.42686108993E+02 0.50308508986E+02 0.57971989383E+02 0.64796846297E+02 0.69620775800E+02
 0.71375634299E+02 0.69620775800E+02 0.64796846297E+02 0.57971989383E+02 0.50308508986E+02
 0.42686108993E+02 0.35678243807E+02 0.29702746203E+02 0.25068917190E+02 0.21856673367E+02
 0.19800277809E+02 0.18617693980E+02 0.18153594649E+02 0.18164565315E+02 0.18391701118E+02
 0.18619776802E+02 0.25795044154E+02 0.25411955132E+02 0.24418977934E+02 0.23185055252E+02
 0.22071942864E+02 0.21301624521E+02 0.21128100869E+02 0.21758901027E+02 0.23298303652E+02
 0.25975470409E+02 0.29911486839E+02 0.35001899777E+02 0.40937314943E+02 0.47156575085E+02
 0.52797009099E+02 0.56802370561E+02 0.58259355068E+02 0.56802370561E+02 0.52797009099E+02
 0.47156575085E+02 0.40937314943E+02 0.35001899777E+02 0.29911486839E+02 0.25975470409E+02
 0.23298303652E+02 0.21758901027E+02 0.21128100869E+02 0.21301624521E+02 0.22071942864E+02
 0.23185055252E+02 0.24418977934E+02 0.25411955132E+02 0.39061428067E+02 0.37987958039E+02
 0.35163199165E+02 0.31534961173E+02 0.28085448644E+02 0.25417365037E+02 0.23627272946E+02
 0.22616774802E+02 0.22522151379E+02 0.23398370355E+02 0.25351852593E+02 0.28371046860E+02
 0.32247177126E+02 0.36534154535E+02 0.40533243731E+02 0.43409538963E+02 0.44460567700E+02
 0.43409538963E+02 0.40533243731E+02 0.36534154535E+02 0.32247177126E+02 0.28371046860E+02
 0.25351852593E+02 0.23398370355E+02 0.22522151379E+02 0.22616774802E+02 0.23627272946E+02
 0.25417365037E+02 0.28085448644E+02 0.31534961173E+02 0.35163199165E+02 0.37987958039E+02
 0.61217269180E+02 0.59040517864E+02 0.53257403870E+02 0.45659518401E+02 0.38125434389E+02
 0.31899156308E+02 0.27433614554E+02 0.24526538662E+02 0.22687921920E+02 0.21925560393E+02
 0.22180941822E+02 0.23357899764E+02 0.25287867101E+02 0.27647547645E+02 0.29953565644E+02
 0.31646944200E+02 0.32270435634E+02 0.31646944200E+02 0.29953565644E+02 0.27647547645E+02
 0.25287867101E+02 0.23357899764E+02 0.22180941822E+02 0.21925560393E+02 0.22687921920E+02
 0.24526538662E+02 0.27433614554E+02 0.31899156308E+02 0.38125434389E+02 0.45659518401E+02
 0.53257403870E+02 0.59040517864E+02 0.91747969456E+02 0.88191082923E+02 0.78701957268E+02
 0.66084434298E+02 0.53228892718E+02 0.42057819044E+02 0.33448024314E+02 0.27543841855E+02
 0.23790694101E+02 0.21374407355E+02 0.20188771961E+02 0.19997841722E+02 0.20491181600E+02
 0.21392857383E+02 0.22383996379E+02 0.23140128529E+02 0.23421242971E+02 0.23140128529E+02
 0.22383996379E+02 0.21392857383E+02 0.20491181600E+02 0.19997841722E+02 0.20188771961E+02
 0.21374407355E+02 0.23790694101E+02 0.27543841855E+02 0.33448024314E+02 0.42057819044E+02
 0.53228892718E+02 0.66084434298E+02 0.78701957268E+02 0.88191082923E+02 0.12824993797E+03
 0.12319159147E+03 0.10970601185E+03 0.91719270087E+02 0.73100573613E+02 0.56280854792E+02
 0.42463585224E+02 0.32287970344E+02 0.25744182419E+02 0.21671141905E+02 0.19102358770E+02
 0.17796636329E+02 0.17365181585E+02 0.17426560369E+02 0.17665362914E+02 0.17871664680E+02
 0.17948345735E+02 0.17871664680E+02 0.17665362914E+02 0.17426560369E+02 0.17365181585E+02
 0.17796636329E+02 0.19102358770E+02 0.21671141905E+02 0.25744182419E+02 0.32287970344E+02
 0.42463585224E+02 0.56280854792E+02 0.73100573613E+02 0.91719270087E+02 0.10970601185E+03
 0.12319159147E+03 0.16879990214E+03 0.16214970649E+03 0.14450809612E+03 0.12110142297E+03
 0.96752515682E+02 0.74135881335E+02 0.54533989283E+02 0.39113583743E+02 0.28718519646E+02
 0.22620524755E+02 0.18767519702E+02 0.16477792705E+02 0.15317369600E+02 0.14831895087E+02
 0.14660973537E+02 0.14593292500E+02 0.14570021300E+02 0.14593292500E+02 0.14660973537E+02
 0.14831895087E+02 0.15317369600E+02 0.16477792705E+02 0.18767519702E+02 0.22620524755E+02
 0.28718519646E+02 0.39113583743E+02 0.54533989283E+02 0.74135881335E+02 0.96752515682E+02
 0.12110142297E+03 0.14450809612E+03 0.16214970649E+03 0.21189514142E+03 0.20351179935E+03
 0.18143560032E+03 0.15246616190E+03 0.12247644457E+03 0.94195635543E+02 0.68700451215E+02
 0.47572973858E+02 0.32652552269E+02 0.23960925086E+02 0.18926541169E+02 0.15799561423E+02
 0.14076143834E+02 0.13215370303E+02 0.12785684070E+02 0.12549914790E+02 0.12465554045E+02
 0.12549914790E+02 0.12785684070E+02 0.13215370303E+02 0.14076143834E+02 0.15799561423E+02
 0.18926541169E+02 0.23960925086E+02 0.32652552269E+02 0.47572973858E+02 0.68700451215E+02
 0.94195635543E+02 0.12247644457E+03 0.15246616190E+03 0.18143560032E+03 0.20351179935E+03
 0.25346852379E+03 0.24330976371E+03 0.21674259829E+03 0.18229088914E+03 0.14697820397E+03
 0.11354384690E+03 0.82685560162E+02 0.56209135917E+02 0.36856188265E+02 0.25445402222E+02
 0.19294433301E+02 0.15505686955E+02 0.13370884961E+02 0.12268046117E+02 0.11689232761E+02
 0.11359885627E+02 0.11241168204E+02 0.11359885627E+02 0.11689232761E+02 0.12268046117E+02
 0.13370884961E+02 0.15505686955E+02 0.19294433301E+02 0.25445402222E+02 0.36856188265E+02
 0.56209135917E+02 0.82685560162E+02 0.11354384690E+03 0.14697820397E+03 0.18229088914E+03
 0.21674259829E+03 0.24330976371E+03 0.28505369526E+03 0.27347402447E+03 0.24332691049E+03
 0.20455847001E+03 0.16516800313E+03 0.12792753151E+03 0.93183713150E+02 0.62808963096E+02
 0.40156105372E+02 0.26643936702E+02 0.19624712632E+02 0.15402707991E+02 0.13011497544E+02
 0.11771615772E+02 0.11117069593E+02 0.10742027583E+02 0.10606348282E+02 0.10742027583E+02
 0.11117069593E+02 0.11771615772E+02 0.13011497544E+02 0.15402707991E+02 0.19624712632E+02
 0.26643936702E+02 0.40156105372E+02 0.62808963096E+02 0.93183713150E+02 0.12792753151E+03
 0.16516800313E+03 0.20455847001E+03 0.24332691049E+03 0.27347402447E+03 0.28515858245E+03
 0.27360041731E+03 0.24350093366E+03 0.20476879657E+03 0.16537357525E+03 0.12808529801E+03
 0.93273858920E+02 0.62840760904E+02 0.40155043608E+02 0.26633717266E+02 0.19617237050E+02
 0.15400402498E+02 0.13013986928E+02 0.11777683590E+02 0.11125480634E+02 0.10751761866E+02
 0.10616514799E+02 0.10751761866E+02 0.11125480634E+02 0.11777683590E+02 0.13013986928E+02
 0.15400402498E+02 0.19617237050E+02 0.26633717266E+02 0.40155043608E+02 0.62840760904E+02
 0.93273858920E+02 0.12808529801E+03 0.16537357525E+03 0.20476879657E+03 0.24350093366E+03
 0.27360041731E+03 0.27404579178E+03 0.26299041946E+03 0.23415625929E+03 0.19694542966E+03
 0.15897981937E+03 0.12301899636E+03 0.89562234374E+02 0.60494037971E+02 0.38971116288E+02
 0.26197100302E+02 0.19491714298E+02 0.15422516376E+02 0.13121612722E+02 0.11928967797E+02
 0.11299425573E+02 0.10938985611E+02 0.10808688022E+02 0.10938985611E+02 0.11299425573E+02
 0.11928967797E+02 0.13121612722E+02 0.15422516376E+02 0.19491714298E+02 0.26197100302E+02
 0.38971116288E+02 0.60494037971E+02 0.89562234374E+02 0.12301899636E+03 0.15897981937E+03
 0.19694542966E+03 0.23415625929E+03 0.26299041946E+03 0.24458805923E+03 0.23482953959E+03
 0.20926345125E+03 0.17600159281E+03 0.14179553374E+03 0.10939576628E+03 0.79620031078E+02
 0.54258399642E+02 0.35863841129E+02 0.25065352184E+02 0.19170173046E+02 0.15522250508E+02
 0.13470909593E+02 0.12412214828E+02 0.11856984878E+02 0.11541339769E+02 0.11427628950E+02
 0.11541339769E+02 0.11856984878E+02 0.12412214828E+02 0.13470909593E+02 0.15522250508E+02
 0.19170173046E+02 0.25065352184E+02 0.35863841129E+02 0.54258399642E+02 0.79620031078E+02
 0.10939576628E+03 0.14179553374E+03 0.17600159281E+03 0.20926345125E+03 0.23482953959E+03
 0.20544084057E+03 0.19732060075E+03 0.17590397654E+03 0.14772855064E+03 0.11850773215E+03
 0.90995635087E+02 0.66342864300E+02 0.46087094622E+02 0.31899964834E+02 0.23654655875E+02
 0.18810949047E+02 0.15806142560E+02 0.14154934907E+02 0.13332549356E+02 0.12923412826E+02
 0.12699477534E+02 0.12619402604E+02 0.12699477534E+02 0.12923412826E+02 0.13332549356E+02
 0.14154934907E+02 0.15806142560E+02 0.18810949047E+02 0.23654655875E+02 0.31899964834E+02
 0.46087094622E+02 0.66342864300E+02 0.90995635087E+02 0.11850773215E+03 0.14772855064E+03
 0.17590397654E+03 0.19732060075E+03 0.16428082532E+03 0.15779310134E+03 0.14056477185E+03
 0.11767514579E+03 0.93862673202E+02 0.71818235164E+02 0.52850738294E+02 0.38066848771E+02
 0.28178989783E+02 0.22360686706E+02 0.18652444749E+02 0.16460882044E+02 0.15357081697E+02
 0.14900745108E+02 0.14744717431E+02 0.14685344286E+02 0.14665064232E+02 0.14685344286E+02
 0.14744717431E+02 0.14900745108E+02 0.15357081697E+02 0.16460882044E+02 0.18652444749E+02
 0.22360686706E+02 0.28178989783E+02 0.38066848771E+02 0.52850738294E+02 0.71818235164E+02
 0.93862673202E+02 0.11767514579E+03 0.14056477185E+03 0.15779310134E+03 0.12499226130E+03
 0.12004343983E+03 0.10684480689E+03 0.89238184943E+02 0.71037966271E+02 0.54667650680E+02
 0.41321014127E+02 0.31579048779E+02 0.25345010679E+02 0.21429618503E+02 0.18970770134E+02
 0.17734868894E+02 0.17340188518E+02 0.17417314430E+02 0.17661732581E+02 0.17869195532E+02
 0.17945972256E+02 0.17869195532E+02 0.17661732581E+02 0.17417314430E+02 0.17340188518E+02
 0.17734868894E+02 0.18970770134E+02 0.21429618503E+02 0.25345010679E+02 0.31579048779E+02
 0.41321014127E+02 0.54667650680E+02 0.71037966271E+02 0.89238184943E+02 0.10684480689E+03
 0.12004343983E+03 0.89350035799E+02 0.85877836423E+02 0.76616007776E+02 0.64309890637E+02
 0.51799347321E+02 0.40977888363E+02 0.32694879752E+02 0.27050750458E+02 0.23448192337E+02
 0.21132401436E+02 0.20017640382E+02 0.19865403491E+02 0.20365458238E+02 0.21249105214E+02
 0.22212211654E+02 0.22944781310E+02 0.23216879386E+02 0.22944781310E+02 0.22212211654E+02
 0.21249105214E+02 0.20365458238E+02 0.19865403491E+02 0.20017640382E+02 0.21132401436E+02
 0.23448192337E+02 0.27050750458E+02 0.32694879752E+02 0.40977888363E+02 0.51799347321E+02
 0.64309890637E+02 0.76616007776E+02 0.85877836423E+02 0.59569254175E+02 0.57456990158E+02
 0.51847834827E+02 0.44487445648E+02 0.37206645099E+02 0.31213274795E+02 0.26931888816E+02
 0.24134836336E+02 0.22368675227E+02 0.21662274715E+02 0.21944207508E+02 0.23105790444E+02
 0.24983706939E+02 0.27267276097E+02 0.29492968998E+02 0.31125192134E+02 0.31725837894E+02
 0.31125192134E+02 0.29492968998E+02 0.27267276097E+02 0.24983706939E+02 0.23105790444E+02
 0.21944207508E+02 0.21662274715E+02 0.22368675227E+02 0.24134836336E+02 0.26931888816E+02
 0.31213274795E+02 0.37206645099E+02 0.44487445648E+02 0.51847834827E+02 0.57456990158E+02
 0.38105698592E+02 0.37072181265E+02 0.34353790432E+02 0.30865316773E+02 0.27552037023E+02
 0.24987129796E+02 0.23250083767E+02 0.22276745873E+02 0.22209887712E+02 0.23089220210E+02
 0.25004252380E+02 0.27943535055E+02 0.31702536606E+02 0.35847959891E+02 0.39706412791E+02
 0.42477363322E+02 0.43489126868E+02 0.42477363322E+02 0.39706412791E+02 0.35847959891E+02
 0.31702536606E+02 0.27943535055E+02 0.25004252380E+02 0.23089220210E+02 0.22209887712E+02
 0.22276745873E+02 0.23250083767E+02 0.24987129796E+02 0.27552037023E+02 0.30865316773E+02
 0.34353790432E+02 0.37072181265E+02 0.25353625971E+02 0.24986107605E+02 0.24032198338E+02
 0.22841807865E+02 0.21754920319E+02 0.20996187688E+02 0.20828621209E+02 0.21455465190E+02
 0.22971533120E+02 0.25587743906E+02 0.29426993145E+02 0.34385057804E+02 0.40151971663E+02
 0.46175095266E+02 0.51620036893E+02 0.55476995297E+02 0.56878148333E+02 0.55476995297E+02
 0.51620036893E+02 0.46175095266E+02 0.40151971663E+02 0.34385057804E+02 0.29426993145E+02
 0.25587743906E+02 0.22971533120E+02 0.21455465190E+02 0.20828621209E+02 0.20996187688E+02
 0.21754920319E+02 0.22841807865E+02 0.24032198338E+02 0.24986107605E+02 0.18516957660E+02
 0.18425983693E+02 0.18199059057E+02 0.17971709565E+02 0.17955436059E+02 0.18404358186E+02
 0.19558501386E+02 0.21570418393E+02 0.24701433843E+02 0.29223791354E+02 0.35067251571E+02
 0.41920199155E+02 0.49352150310E+02 0.56785711502E+02 0.63369054911E+02 0.68002079949E+02
 0.69683616433E+02 0.68002079949E+02 0.63369054911E+02 0.56785711502E+02 0.49352150310E+02
 0.41920199155E+02 0.35067251571E+02 0.29223791354E+02 0.24701433843E+02 0.21570418393E+02
 0.19558501386E+02 0.18404358186E+02 0.17955436059E+02 0.17971709565E+02 0.18199059057E+02
 0.18425983693E+02 0.14295022917E+02 0.14337340168E+02 0.14494372827E+02 0.14863355918E+02
 0.15617233651E+02 0.16988570423E+02 0.19201384700E+02 0.22495776937E+02 0.27352885785E+02
 0.33853824565E+02 0.41586680678E+02 0.49956020399E+02 0.58468073532E+02 0.66681917541E+02
 0.73892531557E+02 0.78993535339E+02 0.80856166364E+02 0.78993535339E+02 0.73892531557E+02
 0.66681917541E+02 0.58468073532E+02 0.49956020399E+02 0.41586680678E+02 0.33853824565E+02
 0.27352885785E+02 0.22495776937E+02 0.19201384700E+02 0.16988570423E+02 0.15617233651E+02
 0.14863355918E+02 0.14494372827E+02 0.14337340168E+02 0.11833273884E+02 0.11952433883E+02
 0.12335892464E+02 0.13074032536E+02 0.14342423840E+02 0.16389829572E+02 0.19460734282E+02
 0.24065970884E+02 0.30721936437E+02 0.39191229604E+02 0.48625359589E+02 0.58144753094E+02
 0.67308343951E+02 0.75971104828E+02 0.83660469678E+02 0.89219405262E+02 0.91279113711E+02
 0.89219405262E+02 0.83660469678E+02 0.75971104828E+02 0.67308343951E+02 0.58144753094E+02
 0.48625359589E+02 0.39191229604E+02 0.30721936437E+02 0.24065970884E+02 0.19460734282E+02
 0.16389829572E+02 0.14342423840E+02 0.13074032536E+02 0.12335892464E+02 0.11952433883E+02
 0.10502779836E+02 0.10660085694E+02 0.11162083809E+02 0.12113609822E+02 0.13719000529E+02
 0.16263666662E+02 0.20087512001E+02 0.25998319649E+02 0.34425929986E+02 0.44766410104E+02
 0.55731116153E+02 0.66229550864E+02 0.75996565403E+02 0.85268594018E+02 0.93766773996E+02
 0.10011598312E+03 0.10251224326E+03 0.10011598312E+03 0.93766773996E+02 0.85268594018E+02
 0.75996565403E+02 0.66229550864E+02 0.55731116153E+02 0.44766410104E+02 0.34425929986E+02
 0.25998319649E+02 0.20087512001E+02 0.16263666662E+02 0.13719000529E+02 0.12113609822E+02
 0.11162083809E+02 0.10660085694E+02 0.97716759514E+01 0.99476777396E+01 0.10512446001E+02
 0.11591431147E+02 0.13423569507E+02 0.16332466734E+02 0.20812762695E+02 0.27889328534E+02
 0.37876754792E+02 0.49839873102E+02 0.62133680377E+02 0.73559712177E+02 0.84094355045E+02
 0.94334494620E+02 0.10408097833E+03 0.11157835297E+03 0.11444852645E+03 0.11157835297E+03
 0.10408097833E+03 0.94334494620E+02 0.84094355045E+02 0.73559712177E+02 0.62133680377E+02
 0.49839873102E+02 0.37876754792E+02 0.27889328534E+02 0.20812762695E+02 0.16332466734E+02
 0.13423569507E+02 0.11591431147E+02 0.10512446001E+02 0.99476777396E+01 0.93504401156E+01
 0.95369575451E+01 0.10138344669E+02 0.11295428354E+02 0.13272174030E+02 0.16419685774E+02
 0.21374008363E+02 0.29278610727E+02 0.40361572085E+02 0.53462275568E+02 0.66713836719E+02
 0.78887481174E+02 0.90167364232E+02 0.10139964396E+03 0.11237560708E+03 0.12096226747E+03
 0.12427385769E+03 0.12096226747E+03 0.11237560708E+03 0.10139964396E+03 0.90167364232E+02
 0.78887481174E+02 0.66713836719E+02 0.53462275568E+02 0.40361572085E+02 0.29278610727E+02
 0.21374008363E+02 0.16419685774E+02 0.13272174030E+02 0.11295428354E+02 0.10138344669E+02
 0.95369575451E+01 0.92001165243E+01 0.93905388826E+01 0.10005413766E+02 0.11190949182E+02
 0.13219855401E+02 0.16453531724E+02 0.21583388015E+02 0.29790262629E+02 0.41270668194E+02
 0.54784812057E+02 0.68391916356E+02 0.80861210972E+02 0.92458554918E+02 0.10411802561E+03
 0.11561332666E+03 0.12465270179E+03 0.12814629343E+03 0.12465270179E+03 0.11561332666E+03
 0.10411802561E+03 0.92458554918E+02 0.80861210972E+02 0.68391916356E+02 0.54784812057E+02
 0.41270668194E+02 0.29790262629E+02 0.21583388015E+02 0.16453531724E+02 0.13219855401E+02
 0.11190949182E+02 0.10005413766E+02 0.93905388826E+01 0.93504401156E+01 0.95369575451E+01
 0.10138344669E+02 0.11295428354E+02 0.13272174030E+02 0.16419685774E+02 0.21374008363E+02
 0.29278610727E+02 0.40361572085E+02 0.53462275568E+02 0.66713836719E+02 0.78887481174E+02
 0.90167364232E+02 0.10139964396E+03 0.11237560708E+03 0.12096226747E+03 0.12427385769E+03
 0.12096226747E+03 0.11237560708E+03 0.10139964396E+03 0.90167364232E+02 0.78887481174E+02
 0.66713836719E+02 0.53462275568E+02 0.40361572085E+02 0.29278610727E+02 0.21374008363E+02
 0.16419685774E+02 0.13272174030E+02 0.11295428354E+02 0.10138344669E+02 0.95369575451E+01
 0.97716759514E+01 0.99476777396E+01 0.10512446001E+02 0.11591431147E+02 0.13423569507E+02
 0.16332466734E+02 0.20812762695E+02 0.27889328534E+02 0.37876754792E+02 0.49839873102E+02
 0.62133680377E+02 0.73559712177E+02 0.84094355045E+02 0.94334494620E+02 0.10408097833E+03
 0.11157835297E+03 0.11444852645E+03 0.11157835297E+03 0.10408097833E+03 0.94334494620E+02
 0.84094355045E+02 0.73559712177E+02 0.62133680377E+02 0.49839873102E+02 0.37876754792E+02