   4   4   0   0
  0.1200752E+02  0.3635000E-09  0.3635000E-09  0.3635000E-09  0.5000000E-15
  1.000000000000000E-004
  CAR 
 unknown system                          
     31.32023994     -0.44408782  301     12.49452771      1.00000000
     -0.444  0.0000E+00  0.0000E+00
     -0.338  0.0000E+00  0.0000E+00
     -0.232  0.0000E+00  0.0000E+00
     -0.126 -0.2434E-31 -0.2577E-32
     -0.021 -0.1272E-27 -0.1347E-28
      0.085 -0.3775E-24 -0.3999E-25
      0.191 -0.6366E-21 -0.6744E-22
      0.297 -0.6089E-18 -0.6454E-19
      0.403 -0.3209E-15 -0.3404E-16
      0.509 -0.9760E-13 -0.1037E-13
      0.615 -0.1675E-10 -0.1784E-11
      0.721 -0.1611E-08 -0.1723E-09
      0.826 -0.8622E-07 -0.9301E-08
      0.932 -0.2535E-05 -0.2777E-06
      1.038 -0.3998E-04 -0.4511E-05
      1.144 -0.3205E-03 -0.3844E-04
      1.250 -0.1108E-02 -0.1558E-03
      1.356 -0.2397E-03 -0.1812E-03
      1.462  0.7223E-02  0.5836E-03
      1.568  0.1545E-01  0.2220E-02
      1.674  0.2236E-01  0.4587E-02
      1.779  0.6387E-01  0.1135E-01
      1.885  0.1201E+00  0.2406E-01
      1.991  0.1324E+00  0.3808E-01
      2.097  0.1879E+00  0.5798E-01
      2.203  0.2691E+00  0.8647E-01
      2.309  0.2331E+00  0.1112E+00
      2.415  0.1879E+00  0.1311E+00
      2.521  0.1784E+00  0.1499E+00
      2.626  0.1207E+00  0.1627E+00
      2.732  0.9599E-01  0.1729E+00
      2.838  0.1897E+00  0.1930E+00
      2.944  0.3903E+00  0.2343E+00
      3.050  0.5902E+00  0.2968E+00
      3.156  0.6787E+00  0.3686E+00
      3.262  0.6055E+00  0.4328E+00
      3.368  0.3361E+00  0.4683E+00
      3.474  0.6080E-01  0.4748E+00
      3.579  0.3470E-01  0.4785E+00
      3.685  0.3745E+00  0.5181E+00
      3.791  0.8901E+00  0.6124E+00
      3.897  0.1029E+01  0.7213E+00
      4.003  0.7922E+00  0.8052E+00
      4.109  0.7143E+00  0.8808E+00
      4.215  0.9198E+00  0.9782E+00
      4.321  0.1126E+01  0.1097E+01
      4.426  0.1263E+01  0.1231E+01
      4.532  0.1698E+01  0.1411E+01
      4.638  0.2549E+01  0.1681E+01
      4.744  0.3080E+01  0.2007E+01
      4.850  0.2637E+01  0.2286E+01
      4.956  0.1942E+01  0.2492E+01
      5.062  0.1986E+01  0.2702E+01
      5.168  0.2766E+01  0.2995E+01
      5.273  0.3851E+01  0.3403E+01
      5.379  0.4843E+01  0.3915E+01
      5.485  0.5424E+01  0.4490E+01
      5.591  0.5216E+01  0.5042E+01
      5.697  0.4759E+01  0.5546E+01
      5.803  0.5131E+01  0.6089E+01
      5.909  0.5847E+01  0.6708E+01
      6.015  0.5774E+01  0.7320E+01
      6.121  0.5126E+01  0.7862E+01
      6.226  0.4700E+01  0.8360E+01
      6.332  0.4621E+01  0.8849E+01
      6.438  0.4552E+01  0.9331E+01
      6.544  0.4217E+01  0.9778E+01
      6.650  0.3945E+01  0.1020E+02
      6.756  0.3909E+01  0.1061E+02
      6.862  0.3672E+01  0.1100E+02
      6.968  0.3630E+01  0.1138E+02
      7.073  0.4026E+01  0.1181E+02
      7.179  0.3945E+01  0.1223E+02
      7.285  0.3415E+01  0.1259E+02
      7.391  0.3257E+01  0.1293E+02
      7.497  0.3518E+01  0.1331E+02
      7.603  0.3960E+01  0.1372E+02
      7.709  0.4827E+01  0.1424E+02
      7.815  0.5940E+01  0.1486E+02
      7.921  0.6416E+01  0.1554E+02
      8.026  0.5937E+01  0.1617E+02
      8.132  0.5085E+01  0.1671E+02
      8.238  0.4715E+01  0.1721E+02
      8.344  0.4770E+01  0.1772E+02
      8.450  0.4757E+01  0.1822E+02
      8.556  0.5126E+01  0.1876E+02
      8.662  0.6374E+01  0.1944E+02
      8.768  0.8077E+01  0.2029E+02
      8.873  0.9446E+01  0.2129E+02
      8.979  0.9756E+01  0.2233E+02
      9.085  0.8490E+01  0.2322E+02
      9.191  0.6575E+01  0.2392E+02
      9.297  0.5452E+01  0.2450E+02
      9.403  0.5464E+01  0.2508E+02
      9.509  0.6759E+01  0.2579E+02
      9.615  0.8183E+01  0.2666E+02
      9.720  0.7913E+01  0.2750E+02
      9.826  0.6609E+01  0.2820E+02
      9.932  0.5558E+01  0.2878E+02
     10.038  0.4687E+01  0.2928E+02
     10.144  0.3987E+01  0.2970E+02
     10.250  0.3921E+01  0.3012E+02
     10.356  0.4342E+01  0.3058E+02
     10.462  0.4360E+01  0.3104E+02
     10.568  0.3589E+01  0.3142E+02
     10.673  0.2769E+01  0.3171E+02
     10.779  0.2759E+01  0.3200E+02
     10.885  0.3200E+01  0.3234E+02
     10.991  0.3584E+01  0.3272E+02
     11.097  0.4518E+01  0.3320E+02
     11.203  0.5915E+01  0.3383E+02
     11.309  0.6400E+01  0.3451E+02
     11.415  0.5414E+01  0.3508E+02
     11.520  0.4439E+01  0.3555E+02
     11.626  0.4703E+01  0.3605E+02
     11.732  0.5100E+01  0.3659E+02
     11.838  0.4864E+01  0.3710E+02
     11.944  0.4817E+01  0.3761E+02
     12.050  0.5069E+01  0.3815E+02
     12.156  0.5041E+01  0.3868E+02
     12.262  0.4630E+01  0.3917E+02
     12.368  0.3901E+01  0.3958E+02
     12.473  0.3282E+01  0.3993E+02
     12.579  0.3275E+01  0.4028E+02
     12.685  0.3265E+01  0.4062E+02
     12.791  0.2665E+01  0.4091E+02
     12.897  0.2228E+01  0.4114E+02
     13.003  0.2593E+01  0.4142E+02
     13.109  0.2932E+01  0.4173E+02
     13.215  0.2790E+01  0.4202E+02
     13.320  0.2980E+01  0.4234E+02
     13.426  0.3223E+01  0.4268E+02
     13.532  0.2545E+01  0.4295E+02
     13.638  0.1313E+01  0.4309E+02
     13.744  0.6077E+00  0.4315E+02
     13.850  0.9172E+00  0.4325E+02
     13.956  0.1611E+01  0.4342E+02
     14.062  0.1556E+01  0.4359E+02
     14.168  0.8991E+00  0.4368E+02
     14.273  0.4380E+00  0.4373E+02
     14.379  0.3999E+00  0.4377E+02
     14.485  0.6143E+00  0.4383E+02
     14.591  0.6624E+00  0.4390E+02
     14.697  0.5619E+00  0.4396E+02
     14.803  0.7156E+00  0.4404E+02
     14.909  0.7862E+00  0.4412E+02
     15.015  0.4307E+00  0.4417E+02
     15.120  0.1872E+00  0.4419E+02
     15.226  0.4516E+00  0.4424E+02
     15.332  0.9896E+00  0.4434E+02
     15.438  0.1223E+01  0.4447E+02
     15.544  0.8578E+00  0.4456E+02
     15.650  0.4248E+00  0.4461E+02
     15.756  0.3490E+00  0.4464E+02
     15.862  0.4206E+00  0.4469E+02
     15.967  0.5403E+00  0.4474E+02
     16.073  0.7797E+00  0.4483E+02
     16.179  0.1037E+01  0.4494E+02
     16.285  0.1435E+01  0.4509E+02
     16.391  0.1936E+01  0.4529E+02
     16.497  0.1965E+01  0.4550E+02
     16.603  0.1604E+01  0.4567E+02
     16.709  0.1243E+01  0.4580E+02
     16.815  0.8284E+00  0.4589E+02
     16.920  0.6029E+00  0.4596E+02
     17.026  0.7339E+00  0.4603E+02
     17.132  0.8020E+00  0.4612E+02
     17.238  0.6318E+00  0.4618E+02
     17.344  0.5401E+00  0.4624E+02
     17.450  0.5873E+00  0.4630E+02
     17.556  0.5111E+00  0.4636E+02
     17.662  0.4344E+00  0.4640E+02
     17.767  0.8620E+00  0.4650E+02
     17.873  0.1548E+01  0.4666E+02
     17.979  0.1634E+01  0.4683E+02
     18.085  0.9733E+00  0.4694E+02
     18.191  0.2985E+00  0.4697E+02
     18.297  0.1725E+00  0.4699E+02
     18.403  0.4557E+00  0.4703E+02
     18.509  0.7248E+00  0.4711E+02
     18.615  0.7212E+00  0.4719E+02
     18.720  0.5119E+00  0.4724E+02
     18.826  0.4098E+00  0.4728E+02
     18.932  0.7432E+00  0.4736E+02
     19.038  0.1278E+01  0.4750E+02
     19.144  0.1285E+01  0.4763E+02
     19.250  0.8040E+00  0.4772E+02
     19.356  0.4054E+00  0.4776E+02
     19.462  0.2637E+00  0.4779E+02
     19.567  0.3305E+00  0.4783E+02
     19.673  0.4657E+00  0.4787E+02
     19.779  0.6017E+00  0.4794E+02
     19.885  0.8758E+00  0.4803E+02
     19.991  0.1448E+01  0.4818E+02
     20.097  0.1989E+01  0.4839E+02
     20.203  0.1861E+01  0.4859E+02
     20.309  0.1288E+01  0.4873E+02
     20.414  0.1032E+01  0.4884E+02
     20.520  0.1236E+01  0.4897E+02
     20.626  0.1416E+01  0.4912E+02
     20.732  0.1210E+01  0.4925E+02
     20.838  0.9454E+00  0.4935E+02
     20.944  0.1029E+01  0.4946E+02
     21.050  0.1361E+01  0.4960E+02
     21.156  0.1596E+01  0.4977E+02
     21.262  0.1390E+01  0.4992E+02
     21.367  0.7907E+00  0.5000E+02
     21.473  0.4206E+00  0.5004E+02
     21.579  0.7526E+00  0.5012E+02
     21.685  0.1328E+01  0.5026E+02
     21.791  0.1479E+01  0.5042E+02
     21.897  0.1206E+01  0.5055E+02
     22.003  0.8828E+00  0.5064E+02
     22.109  0.9428E+00  0.5074E+02
     22.214  0.1166E+01  0.5087E+02
     22.320  0.1046E+01  0.5098E+02
     22.426  0.7780E+00  0.5106E+02
     22.532  0.7108E+00  0.5113E+02
     22.638  0.9300E+00  0.5123E+02
     22.744  0.1173E+01  0.5136E+02
     22.850  0.1249E+01  0.5149E+02
     22.956  0.1535E+01  0.5165E+02
     23.062  0.2085E+01  0.5187E+02
     23.167  0.2491E+01  0.5214E+02
     23.273  0.2314E+01  0.5238E+02
     23.379  0.1592E+01  0.5255E+02
     23.485  0.1028E+01  0.5266E+02
     23.591  0.9076E+00  0.5275E+02
     23.697  0.7987E+00  0.5284E+02
     23.803  0.5695E+00  0.5290E+02
     23.909  0.5697E+00  0.5296E+02
     24.014  0.6775E+00  0.5303E+02
     24.120  0.5989E+00  0.5309E+02
     24.226  0.4831E+00  0.5315E+02
     24.332  0.5508E+00  0.5320E+02
     24.438  0.8951E+00  0.5330E+02
     24.544  0.1626E+01  0.5347E+02
     24.650  0.2504E+01  0.5374E+02
     24.756  0.2828E+01  0.5404E+02
     24.861  0.2736E+01  0.5433E+02
     24.967  0.2762E+01  0.5462E+02
     25.073  0.2461E+01  0.5488E+02
     25.179  0.1742E+01  0.5506E+02
     25.285  0.1318E+01  0.5520E+02
     25.391  0.1401E+01  0.5535E+02
     25.497  0.1621E+01  0.5552E+02
     25.603  0.1966E+01  0.5573E+02
     25.709  0.2436E+01  0.5599E+02
     25.814  0.2292E+01  0.5623E+02
     25.920  0.1581E+01  0.5640E+02
     26.026  0.1268E+01  0.5653E+02
     26.132  0.1406E+01  0.5668E+02
     26.238  0.1402E+01  0.5683E+02
     26.344  0.1099E+01  0.5695E+02
     26.450  0.9664E+00  0.5705E+02
     26.556  0.1331E+01  0.5719E+02
     26.661  0.1589E+01  0.5736E+02
     26.767  0.1482E+01  0.5751E+02
     26.873  0.1456E+01  0.5767E+02
     26.979  0.1458E+01  0.5782E+02
     27.085  0.1486E+01  0.5798E+02
     27.191  0.1553E+01  0.5814E+02
     27.297  0.1099E+01  0.5826E+02
     27.403  0.4603E+00  0.5831E+02
     27.509  0.5338E+00  0.5837E+02
     27.614  0.9203E+00  0.5846E+02
     27.720  0.9774E+00  0.5857E+02
     27.826  0.1164E+01  0.5869E+02
     27.932  0.1545E+01  0.5885E+02
     28.038  0.1456E+01  0.5901E+02
     28.144  0.1002E+01  0.5911E+02
     28.250  0.7176E+00  0.5919E+02
     28.356  0.6634E+00  0.5926E+02
     28.461  0.8052E+00  0.5935E+02
     28.567  0.1233E+01  0.5948E+02
     28.673  0.1546E+01  0.5964E+02
     28.779  0.1279E+01  0.5978E+02
     28.885  0.6669E+00  0.5985E+02
     28.991  0.1575E+00  0.5986E+02
     29.097 -0.1102E-01  0.5986E+02
     29.203  0.2042E+00  0.5988E+02
     29.308  0.5190E+00  0.5994E+02
     29.414  0.4700E+00  0.5999E+02
     29.520  0.1550E+00  0.6000E+02
     29.626 -0.1445E-01  0.6000E+02
     29.732 -0.2134E-01  0.6000E+02
     29.838 -0.5228E-02  0.6000E+02
     29.944 -0.5833E-03  0.6000E+02
     30.050 -0.3386E-04  0.6000E+02
     30.156 -0.1070E-05  0.6000E+02
     30.261 -0.1879E-07  0.6000E+02
     30.367 -0.1853E-09  0.6000E+02
     30.473 -0.1032E-11  0.6000E+02
     30.579 -0.3228E-14  0.6000E+02
     30.685  0.0000E+00  0.6000E+02
     30.791  0.0000E+00  0.6000E+02
     30.897  0.0000E+00  0.6000E+02
     31.003  0.0000E+00  0.6000E+02
     31.108  0.0000E+00  0.6000E+02
     31.214  0.0000E+00  0.6000E+02
     31.320  0.0000E+00  0.6000E+02
