    4    4    1    1
  0.1200752E+02  0.3635000E-09  0.3635000E-09  0.3635000E-09  0.5000000E-15
  1.000000000000000E-004
  CAR 
 unknown system                          
     40     64     30
 
  0.0000000E+00  0.0000000E+00  0.0000000E+00  0.2915452E-02
    1        1.555912   1.000000
    2        3.775541   1.000000
    3        4.989358   1.000000
    4        5.056153   1.000000
    5        5.103106   1.000000
    6        5.253637   1.000000
    7        5.285357   1.000000
    8        8.500419   1.000000
    9        8.519552   1.000000
   10        8.678977   1.000000
   11       10.167203   1.000000
   12       10.346373   1.000000
   13       11.250304   1.000000
   14       11.480599   1.000000
   15       11.651227   1.000000
   16       12.574923   0.188377
   17       12.819507  -0.021919
   18       12.988409  -0.001326
   19       13.353274  -0.000000
   20       14.008187  -0.000000
   21       14.497359  -0.000000
   22       14.503926  -0.000000
   23       14.537163  -0.000000
   24       14.786974  -0.000000
   25       23.298600   0.000000
   26       23.482763   0.000000
   27       24.130248   0.000000
   28       24.442720   0.000000
   29       24.724080   0.000000
   30       25.260607   0.000000
 
  0.1428571E+00  0.0000000E+00  0.0000000E+00  0.5830904E-02
    1        1.843463   1.000000
    2        3.983096   1.000000
    3        5.129684   1.000000
    4        5.161837   1.000000
    5        5.294419   1.000000
    6        5.436674   1.000000
    7        5.498059   1.000000
    8        8.348859   1.000000
    9        8.606188   1.000000
   10        8.789583   1.000000
   11       10.147475   1.000000
   12       10.236704   1.000000
   13       10.934536   1.000000
   14       11.184929   1.000000
   15       11.240505   1.000000
   16       11.362191   1.000000
   17       12.551033   0.271156
   18       12.655688   0.008483
   19       13.000405  -0.001014
   20       13.076472  -0.000153
   21       13.517217  -0.000000
   22       14.785734  -0.000000
   23       16.029351  -0.000000
   24       16.058681  -0.000000
   25       22.915777   0.000000
   26       23.269823   0.000000
   27       24.670177   0.000000
   28       24.811728   0.000000
   29       24.841622   0.000000
   30       26.333789   0.000000
 
  0.0000000E+00  0.1428571E+00  0.0000000E+00  0.5830904E-02
    1        1.875155   1.000000
    2        3.998841   1.000000
    3        5.098463   1.000000
    4        5.205917   1.000000
    5        5.261338   1.000000
    6        5.437008   1.000000
    7        5.511644   1.000000
    8        8.527756   1.000000
    9        8.620811   1.000000
   10        8.635012   1.000000
   11       10.046111   1.000000
   12       10.380774   1.000000
   13       10.767268   1.000000
   14       11.028016   1.000000
   15       11.409202   1.000000
   16       12.302609   1.020410
   17       12.539509   0.314901
   18       12.756060  -0.034514
   19       12.975513  -0.001752
   20       12.988850  -0.001313
   21       13.098404  -0.000084
   22       13.559744  -0.000000
   23       16.190100  -0.000000
   24       16.428461  -0.000000
   25       22.558238   0.000000
   26       23.896755   0.000000
   27       24.458044   0.000000
   28       24.644796   0.000000
   29       25.149869   0.000000
   30       26.062157   0.000000
 
  0.0000000E+00  0.0000000E+00  0.1428571E+00  0.5830904E-02
    1        1.877889   1.000000
    2        4.006190   1.000000
    3        5.218598   1.000000
    4        5.265298   1.000000
    5        5.298907   1.000000
    6        5.373680   1.000000
    7        5.374209   1.000000
    8        8.321237   1.000000
    9        8.620962   1.000000
   10        8.789959   1.000000
   11       10.076867   1.000000
   12       10.329719   1.000000
   13       10.734634   1.000000
   14       11.262308   1.000000
   15       11.482397   1.000000
   16       11.631337   1.000000
   17       12.324735   1.001536
   18       12.604079   0.104809
   19       12.889568  -0.008654
   20       13.170331  -0.000010
   21       13.584523  -0.000000
   22       13.995618  -0.000000
   23       16.099741  -0.000000
   24       16.370944  -0.000000
   25       22.241280   0.000000
   26       24.017338   0.000000
   27       24.491042   0.000000
   28       24.861018   0.000000
   29       25.253465   0.000000
   30       25.944684   0.000000
 
  0.2857143E+00  0.0000000E+00  0.0000000E+00  0.5830904E-02
    1        2.623776   1.000000
    2        4.533653   1.000000
    3        5.402837   1.000000
    4        5.451931   1.000000
    5        5.858212   1.000000
    6        5.972702   1.000000
    7        6.116363   1.000000
    8        7.924171   1.000000
    9        8.838301   1.000000
   10        9.114123   1.000000
   11        9.648969   1.000000
   12        9.671847   1.000000
   13        9.752451   1.000000
   14       10.282160   1.000000
   15       10.439834   1.000000
   16       11.210482   1.000000
   17       11.224586   1.000000
   18       11.771424   1.000002
   19       11.962023   1.000543
   20       12.271786   1.033259
   21       12.862588  -0.012931
   22       14.783795  -0.000000
   23       18.165070   0.000000
   24       18.253722   0.000000
   25       21.828474   0.000000
   26       23.200190   0.000000
   27       24.194462   0.000000
   28       24.289392   0.000000
   29       24.692528   0.000000
   30       26.555360   0.000000
 
  0.0000000E+00  0.2857143E+00  0.0000000E+00  0.5830904E-02
    1        2.770916   1.000000
    2        4.575275   1.000000
    3        5.280146   1.000000
    4        5.479086   1.000000
    5        5.854249   1.000000
    6        5.966235   1.000000
    7        6.178063   1.000000
    8        8.152200   1.000000
    9        8.985205   1.000000
   10        8.993423   1.000000
   11        9.659489   1.000000
   12        9.721311   1.000000
   13        9.728419   1.000000
   14       10.452109   1.000000
   15       10.765588   1.000000
   16       11.268662   1.000000
   17       11.586695   1.000000
   18       11.707662   1.000000
   19       11.971912   1.000688
   20       12.137958   1.015099
   21       12.464474   0.625590
   22       12.956754  -0.002582
   23       18.355032   0.000000
   24       18.385250   0.000000
   25       21.598500   0.000000
   26       23.851798   0.000000
   27       24.049291   0.000000
   28       24.241521   0.000000
   29       25.510306   0.000000
   30       25.646345   0.000000
 
  0.0000000E+00  0.0000000E+00  0.2857143E+00  0.5830904E-02
    1        2.785009   1.000000
    2        4.604808   1.000000
    3        5.522075   1.000000
    4        5.716466   1.000000
    5        5.851836   1.000000
    6        5.877895   1.000000
    7        5.879398   1.000000
    8        7.854980   1.000000
    9        8.851085   1.000000
   10        9.115639   1.000000
   11        9.665081   1.000000
   12        9.715204   1.000000
   13        9.720642   1.000000
   14       10.396106   1.000000
   15       10.554671   1.000000
   16       11.199462   1.000000
   17       11.545224   1.000000
   18       11.594994   1.000000
   19       11.863940   1.000039
   20       12.117272   1.011342
   21       12.483825   0.545216
   22       13.972503  -0.000000
   23       18.325168   0.000000
   24       18.391470   0.000000
   25       21.135265   0.000000
   26       24.094348   0.000000
   27       24.239949   0.000000
   28       24.381446   0.000000
   29       25.230070   0.000000
   30       25.955907   0.000000
 
  0.4285714E+00  0.0000000E+00  0.0000000E+00  0.5830904E-02
    1        3.512379   1.000000
    2        5.149888   1.000000
    3        5.514319   1.000000
    4        5.777005   1.000000
    5        6.734191   1.000000
    6        6.779944   1.000000
    7        6.801243   1.000000
    8        7.493076   1.000000
    9        8.122755   1.000000
   10        8.169129   1.000000
   11        9.275994   1.000000
   12        9.544047   1.000000
   13        9.552735   1.000000
   14        9.557356   1.000000
   15        9.883979   1.000000
   16       10.364868   1.000000
   17       11.017779   1.000000
   18       11.092187   1.000000
   19       11.212285   1.000000
   20       11.500688   1.000000
   21       12.731963  -0.035229
   22       14.782730  -0.000000
   23       20.298066   0.000000
   24       20.436751   0.000000
   25       21.267312   0.000000
   26       22.668889   0.000000
   27       22.879912   0.000000
   28       23.206506   0.000000
   29       23.693830   0.000000
   30       27.157245   0.000000
 
  0.0000000E+00  0.4285714E+00  0.0000000E+00  0.5830904E-02
    1        3.972511   1.000000
    2        4.988422   1.000000
    3        5.332398   1.000000
    4        5.768278   1.000000
    5        6.679124   1.000000
    6        6.700979   1.000000
    7        6.968321   1.000000
    8        7.776373   1.000000
    9        8.486233   1.000000
   10        8.503321   1.000000
   11        9.220512   1.000000
   12        9.538763   1.000000
   13        9.590047   1.000000
   14        9.591367   1.000000
   15       10.268485   1.000000
   16       10.554198   1.000000
   17       10.561365   1.000000
   18       10.876907   1.000000
   19       11.100041   1.000000
   20       11.436563   1.000000
   21       12.408786   0.828469
   22       12.946977  -0.003133
   23       20.427762   0.000000
   24       20.596176   0.000000
   25       21.106463   0.000000
   26       22.463586   0.000000
   27       22.702224   0.000000
   28       23.589415   0.000000
   29       25.280350   0.000000
   30       25.696463   0.000000
 
  0.0000000E+00  0.0000000E+00  0.4285714E+00  0.5830904E-02
    1        4.036324   1.000000
    2        4.945720   1.000000
    3        5.658009   1.000000
    4        6.160078   1.000000
    5        6.503101   1.000000
    6        6.799189   1.000000
    7        6.824871   1.000000
    8        7.310140   1.000000
    9        8.093827   1.000000
   10        8.161845   1.000000
   11        9.230831   1.000000
   12        9.538057   1.000000
   13        9.616566   1.000000
   14        9.621963   1.000000
   15        9.955528   1.000000
   16       10.526303   1.000000
   17       10.744725   1.000000
   18       10.817386   1.000000
   19       11.283647   1.000000
   20       11.569589   1.000000
   21       12.179709   1.024265
   22       13.956876  -0.000000
   23       20.384745   0.000000
   24       20.588371   0.000000
   25       20.724047   0.000000
   26       22.441657   0.000000
   27       22.864313   0.000000
   28       24.205653   0.000000
   29       24.627343   0.000000
   30       26.233544   0.000000
 
  0.1428571E+00  0.1428571E+00  0.0000000E+00  0.1166181E-01
    1        2.154207   1.000000
    2        4.200480   1.000000
    3        5.270958   1.000000
    4        5.320156   1.000000
    5        5.439782   1.000000
    6        5.531391   1.000000
    7        5.764080   1.000000
    8        8.322851   1.000000
    9        8.689471   1.000000
   10        8.789259   1.000000
   11       10.043366   1.000000
   12       10.198751   1.000000
   13       10.503373   1.000000
   14       10.528831   1.000000
   15       11.134237   1.000000
   16       11.535429   1.000000
   17       11.690265   1.000000
   18       12.396850   0.863653
   19       12.498400   0.483617
   20       12.780844  -0.030562
   21       13.690443  -0.000000
   22       14.568160  -0.000000
   23       15.578310  -0.000000
   24       17.254361  -0.000000
   25       22.331594   0.000000
   26       23.930280   0.000000
   27       24.606487   0.000000
   28       24.860640   0.000000
   29       25.088099   0.000000
   30       26.019258   0.000000
 
  0.0000000E+00  0.1428571E+00  0.1428571E+00  0.1166181E-01
    1        2.177073   1.000000
    2        4.224153   1.000000
    3        5.276338   1.000000
    4        5.365617   1.000000
    5        5.448601   1.000000
    6        5.585065   1.000000
    7        5.665584   1.000000
    8        8.302803   1.000000
    9        8.702446   1.000000
   10        8.785899   1.000000
   11       10.005540   1.000000
   12       10.219824   1.000000
   13       10.438383   1.000000
   14       10.669106   1.000000
   15       11.267849   1.000000
   16       11.529932   1.000000
   17       11.886620   1.000075
   18       12.232290   1.034437
   19       12.317710   1.008544
   20       12.662390   0.000568
   21       13.345682  -0.000000
   22       14.508705  -0.000000
   23       16.094345  -0.000000
   24       17.110569  -0.000000
   25       22.242021   0.000000
   26       23.552758   0.000000
   27       24.443586   0.000000
   28       24.954694   0.000000
   29       25.717799   0.000000
   30       26.237000   0.000000
 
  0.1428571E+00  0.0000000E+00  0.1428571E+00  0.1166181E-01
    1        2.155672   1.000000
    2        4.208723   1.000000
    3        5.295806   1.000000
    4        5.340630   1.000000
    5        5.491877   1.000000
    6        5.583678   1.000000
    7        5.637255   1.000000
    8        8.202536   1.000000
    9        8.686120   1.000000
   10        8.866511   1.000000
   11       10.099901   1.000000
   12       10.171484   1.000000
   13       10.437787   1.000000
   14       10.786264   1.000000
   15       11.035939   1.000000
   16       11.138695   1.000000
   17       11.347955   1.000000
   18       12.516425   0.407958
   19       12.825476  -0.020559
   20       12.951489  -0.002868
   21       13.890253  -0.000000
   22       14.821882  -0.000000
   23       15.180211  -0.000000
   24       17.235398  -0.000000
   25       22.208429   0.000000
   26       23.916612   0.000000
   27       24.572545   0.000000
   28       24.933324   0.000000
   29       25.271142   0.000000
   30       26.112419   0.000000
 
  0.2857143E+00  0.1428571E+00  0.0000000E+00  0.1166181E-01
    1        2.915293   1.000000
    2        4.739214   1.000000
    3        5.599730   1.000000
    4        5.613377   1.000000
    5        5.977101   1.000000
    6        5.978882   1.000000
    7        6.340041   1.000000
    8        7.894727   1.000000
    9        8.732367   1.000000
   10        9.114928   1.000000
   11        9.330595   1.000000
   12        9.465706   1.000000
   13        9.696203   1.000000
   14        9.999837   1.000000
   15       10.475731   1.000000
   16       10.602984   1.000000
   17       11.138217   1.000000
   18       11.805816   1.000006
   19       11.925311   1.000215
   20       12.419817   0.793001
   21       13.476298  -0.000000
   22       13.910138  -0.000000
   23       16.893435  -0.000000
   24       19.109220   0.000000
   25       21.148828   0.000000
   26       23.067880   0.000000
   27       24.077480   0.000000
   28       24.960333   0.000000
   29       26.256408   0.000000
   30       27.072966   0.000000
 
  0.0000000E+00  0.2857143E+00  0.1428571E+00  0.1166181E-01
    1        3.020395   1.000000
    2        4.791900   1.000000
    3        5.462057   1.000000
    4        5.617034   1.000000
    5        5.934612   1.000000
    6        6.100569   1.000000
    7        6.375166   1.000000
    8        8.045053   1.000000
    9        8.906035   1.000000
   10        9.027700   1.000000
   11        9.316748   1.000000
   12        9.534273   1.000000
   13        9.762188   1.000000
   14        9.815162   1.000000
   15       10.551776   1.000000
   16       11.121166   1.000000
   17       11.340442   1.000000
   18       11.405163   1.000000
   19       11.878588   1.000059
   20       12.307689   1.016882
   21       12.744316  -0.035371
   22       13.344481  -0.000000
   23       17.340537  -0.000000
   24       18.992924   0.000000
   25       21.021114   0.000000
   26       23.237640   0.000000
   27       24.387718   0.000000
   28       24.840659   0.000000
   29       25.804799   0.000000
   30       27.279816   0.000000
 
  0.1428571E+00  0.0000000E+00  0.2857143E+00  0.1166181E-01
    1        3.034675   1.000000
    2        4.801774   1.000000
    3        5.686250   1.000000
    4        5.765408   1.000000
    5        5.855706   1.000000
    6        6.090889   1.000000
    7        6.192407   1.000000
    8        7.761785   1.000000
    9        8.912444   1.000000
   10        9.048635   1.000000
   11        9.160696   1.000000
   12        9.537778   1.000000
   13        9.699119   1.000000
   14        9.948267   1.000000
   15       10.456156   1.000000
   16       10.585653   1.000000
   17       11.358019   1.000000
   18       11.894625   1.000094
   19       11.998001   1.001251
   20       12.348332   0.970224
   21       13.074204  -0.000163
   22       13.420884  -0.000000
   23       17.070675  -0.000000
   24       19.046642   0.000000
   25       20.987017   0.000000
   26       23.143439   0.000000
   27       24.738926   0.000000
   28       24.876035   0.000000
   29       25.915710   0.000000
   30       26.606173   0.000000
 
 -0.1428571E+00  0.2857143E+00  0.0000000E+00  0.1166181E-01
    1        3.026779   1.000000
    2        4.767274   1.000000
    3        5.490443   1.000000
    4        5.623141   1.000000
    5        5.979108   1.000000
    6        5.992571   1.000000
    7        6.387943   1.000000
    8        8.057451   1.000000
    9        8.896456   1.000000
   10        9.035862   1.000000
   11        9.292311   1.000000
   12        9.503335   1.000000
   13        9.775418   1.000000
   14        9.906421   1.000000
   15       10.558498   1.000000
   16       10.896514   1.000000
   17       11.472755   1.000000
   18       11.624380   1.000000
   19       11.991270   1.001076
   20       12.302319   1.020597
   21       12.710380  -0.031518
   22       13.124903  -0.000039
   23       17.150589  -0.000000
   24       19.074397   0.000000
   25       21.091940   0.000000
   26       23.317247   0.000000
   27       24.670421   0.000000
   28       24.752137   0.000000
   29       25.856371   0.000000
   30       26.462019   0.000000
 
 -0.2857143E+00  0.0000000E+00  0.1428571E+00  0.1166181E-01
    1        2.913311   1.000000
    2        4.749794   1.000000
    3        5.577285   1.000000
    4        5.605158   1.000000
    5        5.925458   1.000000
    6        6.118531   1.000000
    7        6.319424   1.000000
    8        7.816607   1.000000
    9        8.904902   1.000000
   10        9.042190   1.000000
   11        9.155126   1.000000
   12        9.536694   1.000000
   13        9.673554   1.000000
   14        9.994602   1.000000
   15       10.404750   1.000000
   16       10.502512   1.000000
   17       11.159088   1.000000
   18       11.899642   1.000108
   19       12.104810   1.009406
   20       12.569904   0.204781
   21       13.341612  -0.000000
   22       13.905151  -0.000000
   23       16.855648  -0.000000
   24       19.040931   0.000000
   25       21.224011   0.000000
   26       23.028766   0.000000
   27       24.053967   0.000000
   28       24.872836   0.000000
   29       26.340430   0.000000
   30       26.900616   0.000000
 
  0.0000000E+00  0.1428571E+00  0.2857143E+00  0.1166181E-01
    1        3.030730   1.000000
    2        4.812014   1.000000
    3        5.698826   1.000000
    4        5.770341   1.000000
    5        5.827260   1.000000
    6        6.069957   1.000000
    7        6.206297   1.000000
    8        7.826521   1.000000
    9        8.743920   1.000000
   10        9.115423   1.000000
   11        9.349420   1.000000
   12        9.500348   1.000000
   13        9.699449   1.000000
   14        9.922905   1.000000
   15       10.575544   1.000000
   16       10.663384   1.000000
   17       11.245167   1.000000
   18       11.784195   1.000003
   19       11.845854   1.000022
   20       11.984851   1.000930
   21       13.439523  -0.000000
   22       13.442849  -0.000000
   23       17.285283  -0.000000
   24       19.041507   0.000000
   25       20.875796   0.000000
   26       23.028286   0.000000
   27       24.605063   0.000000
   28       25.002091   0.000000
   29       25.823245   0.000000
   30       27.591213   0.000000
 
  0.4285714E+00  0.1428571E+00  0.0000000E+00  0.1166181E-01
    1        3.803766   1.000000
    2        5.360200   1.000000
    3        5.689095   1.000000
    4        5.950972   1.000000
    5        6.680600   1.000000
    6        6.802143   1.000000
    7        6.970582   1.000000
    8        7.472618   1.000000
    9        7.888365   1.000000
   10        8.165198   1.000000
   11        8.898708   1.000000
   12        8.958887   1.000000
   13        9.546851   1.000000
   14        9.828074   1.000000
   15        9.971093   1.000000
   16       10.301150   1.000000
   17       10.745652   1.000000
   18       11.368924   1.000000
   19       11.425229   1.000000
   20       11.959728   1.000514
   21       12.664274  -0.001486
   22       13.969810  -0.000000
   23       18.417519   0.000000
   24       19.989690   0.000000
   25       21.241894   0.000000
   26       22.158890   0.000000
   27       23.416254   0.000000
   28       24.635835   0.000000
   29       25.638154   0.000000
   30       28.178070   0.000000
 
  0.0000000E+00  0.4285714E+00  0.1428571E+00  0.1166181E-01
    1        4.182576   1.000000
    2        5.197013   1.000000
    3        5.522448   1.000000
    4        5.913288   1.000000
    5        6.570960   1.000000
    6        6.743461   1.000000
    7        7.149856   1.000000
    8        7.744577   1.000000
    9        8.125951   1.000000
   10        8.470244   1.000000
   11        8.896321   1.000000
   12        8.955097   1.000000
   13        9.584808   1.000000
   14        9.826691   1.000000
   15       10.309944   1.000000
   16       10.489818   1.000000
   17       10.498086   1.000000
   18       11.061259   1.000000
   19       11.311045   1.000000
   20       12.032683   1.002602
   21       12.284666   1.029516
   22       12.610104   0.090159
   23       18.736331   0.000000
   24       20.025409   0.000000
   25       21.109923   0.000000
   26       22.617070   0.000000
   27       23.209384   0.000000
   28       24.390356   0.000000
   29       26.007000   0.000000
   30       27.165279   0.000000
 
  0.1428571E+00  0.0000000E+00  0.4285714E+00  0.1166181E-01
    1        4.254820   1.000000
    2        5.172190   1.000000
    3        5.860750   1.000000
    4        6.253189   1.000000
    5        6.523551   1.000000
    6        6.871494   1.000000
    7        6.903986   1.000000
    8        7.285210   1.000000
    9        7.792351   1.000000
   10        8.180267   1.000000
   11        8.916863   1.000000
   12        9.011583   1.000000
   13        9.615054   1.000000
   14        9.918722   1.000000
   15        9.979081   1.000000
   16       10.375879   1.000000
   17       10.781618   1.000000
   18       11.332400   1.000000
   19       11.407070   1.000000
   20       11.543508   1.000000
   21       12.229829   1.034149
   22       13.353525  -0.000000
   23       18.775819   0.000000
   24       20.094190   0.000000
   25       20.994959   0.000000
   26       22.170906   0.000000
   27       23.105283   0.000000
   28       25.059472   0.000000
   29       25.967485   0.000000
   30       27.648164   0.000000
 
 -0.1428571E+00  0.4285714E+00  0.0000000E+00  0.1166181E-01
    1        4.214781   1.000000
    2        5.186953   1.000000
    3        5.544133   1.000000
    4        5.922177   1.000000
    5        6.591490   1.000000
    6        6.743293   1.000000
    7        7.133814   1.000000
    8        7.737331   1.000000
    9        8.251565   1.000000
   10        8.454853   1.000000
   11        8.844285   1.000000
   12        8.940987   1.000000
   13        9.593491   1.000000
   14        9.846283   1.000000
   15       10.325667   1.000000
   16       10.405817   1.000000
   17       10.519773   1.000000
   18       11.066433   1.000000
   19       11.371386   1.000000
   20       11.927530   1.000228
   21       12.211058   1.031121
   22       12.531544   0.346307
   23       18.779448   0.000000
   24       20.063966   0.000000
   25       21.025303   0.000000
   26       22.595409   0.000000
   27       23.071263   0.000000
   28       24.583692   0.000000
   29       26.228447   0.000000
   30       27.213736   0.000000
 
 -0.4285714E+00  0.0000000E+00  0.1428571E+00  0.1166181E-01
    1        3.799820   1.000000
    2        5.372218   1.000000
    3        5.685587   1.000000
    4        5.937879   1.000000
    5        6.590337   1.000000
    6        6.809040   1.000000
    7        7.018902   1.000000
    8        7.485647   1.000000
    9        7.814879   1.000000
   10        8.204610   1.000000
   11        8.932606   1.000000
   12        9.030163   1.000000
   13        9.549438   1.000000
   14        9.872169   1.000000
   15        9.939745   1.000000
   16       10.289991   1.000000
   17       11.027482   1.000000
   18       11.112698   1.000000
   19       11.518815   1.000000
   20       11.836852   1.000017
   21       12.650952   0.014670
   22       13.929423  -0.000000
   23       18.480152   0.000000
   24       20.109801   0.000000
   25       21.122775   0.000000
   26       22.114346   0.000000
   27       23.242575   0.000000
   28       24.611330   0.000000
   29       25.725350   0.000000
   30       28.243795   0.000000
 
  0.0000000E+00  0.1428571E+00  0.4285714E+00  0.1166181E-01
    1        4.230607   1.000000
    2        5.155628   1.000000
    3        5.860296   1.000000
    4        6.262839   1.000000
    5        6.559687   1.000000
    6        6.862717   1.000000
    7        6.881234   1.000000
    8        7.288358   1.000000
    9        7.794002   1.000000
   10        8.161022   1.000000
   11        8.827883   1.000000
   12        9.006547   1.000000
   13        9.605710   1.000000
   14        9.827739   1.000000
   15       10.058529   1.000000
   16       10.423849   1.000000
   17       10.564343   1.000000
   18       11.196433   1.000000
   19       11.662196   1.000000
   20       11.692082   1.000000
   21       12.318094   1.008187
   22       13.452416  -0.000000
   23       18.640067   0.000000
   24       19.968798   0.000000
   25       21.233059   0.000000
   26       22.179334   0.000000
   27       23.386441   0.000000
   28       24.941407   0.000000
   29       25.672558   0.000000
   30       27.519123   0.000000
 
  0.2857143E+00  0.2857143E+00  0.0000000E+00  0.1166181E-01
    1        3.727040   1.000000
    2        5.269341   1.000000
    3        5.989044   1.000000
    4        6.017053   1.000000
    5        6.252012   1.000000
    6        6.383942   1.000000
    7        6.721228   1.000000
    8        7.740410   1.000000
    9        8.384267   1.000000
   10        8.652937   1.000000
   11        8.958489   1.000000
   12        8.974911   1.000000
   13        9.240053   1.000000
   14        9.708052   1.000000
   15       10.275997   1.000000
   16       10.781572   1.000000
   17       10.933907   1.000000
   18       11.579056   1.000000
   19       11.814823   1.000008
   20       11.842799   1.000020
   21       12.504759   0.456769
   22       14.032910  -0.000000
   23       15.763198  -0.000000
   24       19.325377   0.000000
   25       20.716766   0.000000
   26       23.204873   0.000000
   27       25.425444   0.000000
   28       25.622619   0.000000
   29       26.204417   0.000000
   30       26.775917   0.000000
 
  0.0000000E+00  0.2857143E+00  0.2857143E+00  0.1166181E-01
    1        3.721415   1.000000
    2        5.338292   1.000000
    3        5.966509   1.000000
    4        5.989845   1.000000
    5        6.234796   1.000000
    6        6.519302   1.000000
    7        6.734078   1.000000
    8        7.680081   1.000000
    9        8.203663   1.000000
   10        8.687425   1.000000
   11        8.965890   1.000000
   12        8.993627   1.000000
   13        9.231811   1.000000
   14        9.670327   1.000000
   15       10.488296   1.000000
   16       10.752474   1.000000
   17       10.877918   1.000000
   18       11.399966   1.000000
   19       11.566412   1.000000
   20       11.974057   1.000724
   21       12.509564   0.436572
   22       13.992048  -0.000000
   23       16.402976  -0.000000
   24       19.221207   0.000000
   25       20.532740   0.000000
   26       23.234720   0.000000
   27       25.111668   0.000000
   28       25.437481   0.000000
   29       26.147796   0.000000
   30       26.672391   0.000000
 
  0.2857143E+00  0.0000000E+00  0.2857143E+00  0.1166181E-01
    1        3.717369   1.000000
    2        5.311894   1.000000
    3        5.983491   1.000000
    4        6.037902   1.000000
    5        6.216396   1.000000
    6        6.598964   1.000000
    7        6.723897   1.000000
    8        7.483084   1.000000
    9        8.037312   1.000000
   10        8.847126   1.000000
   11        8.992745   1.000000
   12        9.096843   1.000000
   13        9.168975   1.000000
   14        9.706753   1.000000
   15       10.147749   1.000000
   16       10.623977   1.000000
   17       11.032250   1.000000
   18       11.620051   1.000000
   19       11.919767   1.000186
   20       12.019688   1.001994
   21       12.585700   0.155099
   22       14.507927  -0.000000
   23       15.165257  -0.000000
   24       19.409653   0.000000
   25       20.672425   0.000000
   26       22.981807   0.000000
   27       25.190762   0.000000
   28       26.009567   0.000000
   29       26.232753   0.000000
   30       26.780453   0.000000
 
  0.4285714E+00  0.2857143E+00  0.0000000E+00  0.1166181E-01
    1        4.588455   1.000000
    2        5.807779   1.000000
    3        6.222132   1.000000
    4        6.403327   1.000000
    5        6.681675   1.000000
    6        7.017657   1.000000
    7        7.109721   1.000000