Automatically generated mesh
      64
Reciprocal lattice
    0.00000000000000    0.00000000000000    0.00000000000000             1
    0.14285714285715    0.00000000000000    0.00000000000000             2
    0.00000000000000    0.14285714285715    0.00000000000000             2
    0.00000000000000    0.00000000000000    0.14285714285715             2
    0.28571428571428    0.00000000000000    0.00000000000000             2
    0.00000000000000    0.28571428571428    0.00000000000000             2
    0.00000000000000    0.00000000000000    0.28571428571428             2
    0.42857142857143    0.00000000000000    0.00000000000000             2
    0.00000000000000    0.42857142857143    0.00000000000000             2
    0.00000000000000    0.00000000000000    0.42857142857143             2
    0.14285714285715    0.14285714285715    0.00000000000000             4
    0.00000000000000    0.14285714285715    0.14285714285715             4
    0.14285714285715    0.00000000000000    0.14285714285715             4
    0.28571428571428    0.14285714285715    0.00000000000000             4
    0.00000000000000    0.28571428571428    0.14285714285715             4
    0.14285714285715    0.00000000000000    0.28571428571428             4
   -0.14285714285715    0.28571428571428    0.00000000000000             4
   -0.28571428571428    0.00000000000000    0.14285714285715             4
    0.00000000000000    0.14285714285715    0.28571428571428             4
    0.42857142857143    0.14285714285715    0.00000000000000             4
    0.00000000000000    0.42857142857143    0.14285714285715             4
    0.14285714285715    0.00000000000000    0.42857142857143             4
   -0.14285714285715    0.42857142857143    0.00000000000000             4
   -0.42857142857143    0.00000000000000    0.14285714285715             4
    0.00000000000000    0.14285714285715    0.42857142857143             4
    0.28571428571428    0.28571428571428    0.00000000000000             4
    0.00000000000000    0.28571428571428    0.28571428571428             4
    0.28571428571428    0.00000000000000    0.28571428571428             4
    0.42857142857143    0.28571428571428    0.00000000000000             4
    0.00000000000000    0.42857142857143    0.28571428571428             4
    0.28571428571428    0.00000000000000    0.42857142857143             4
   -0.28571428571428    0.42857142857143    0.00000000000000             4
   -0.42857142857143    0.00000000000000    0.28571428571428             4
    0.00000000000000    0.28571428571428    0.42857142857143             4
    0.42857142857143    0.42857142857143    0.00000000000000             4
    0.00000000000000    0.42857142857143    0.42857142857143             4
    0.42857142857143    0.00000000000000    0.42857142857143             4
    0.14285714285715    0.14285714285715    0.14285714285715             8
    0.28571428571428    0.14285714285715    0.14285714285715             8
    0.14285714285715    0.28571428571428    0.14285714285715             8
    0.14285714285715    0.14285714285715    0.28571428571428             8
    0.42857142857143    0.14285714285715    0.14285714285715             8
    0.14285714285715    0.42857142857143    0.14285714285715             8
    0.14285714285715    0.14285714285715    0.42857142857143             8
    0.28571428571428    0.28571428571428    0.14285714285715             8
    0.14285714285715    0.28571428571428    0.28571428571428             8
    0.28571428571428    0.14285714285715    0.28571428571428             8
    0.42857142857143    0.28571428571428    0.14285714285715             8
    0.14285714285715    0.42857142857143    0.28571428571428             8
    0.28571428571428    0.14285714285715    0.42857142857143             8
   -0.28571428571428    0.42857142857143    0.14285714285715             8
   -0.42857142857143    0.14285714285715    0.28571428571428             8
   -0.14285714285715    0.28571428571428    0.42857142857143             8
    0.42857142857143    0.42857142857143    0.14285714285715             8
    0.14285714285715    0.42857142857143    0.42857142857143             8
    0.42857142857143    0.14285714285715    0.42857142857143             8
    0.28571428571428    0.28571428571428    0.28571428571428             8
    0.42857142857143    0.28571428571428    0.28571428571428             8
    0.28571428571428    0.42857142857143    0.28571428571428             8
    0.28571428571428    0.28571428571428    0.42857142857143             8
    0.42857142857143    0.42857142857143    0.28571428571428             8
    0.28571428571428    0.42857142857143    0.42857142857143             8
    0.42857142857143    0.28571428571428    0.42857142857143             8
    0.42857142857143    0.42857142857143    0.42857142857143             8
