       N       E                     dE             d eps       ncg     rms          rms(c)
DAV:   1     0.232273122413E+03    0.23227E+03   -0.11960E+04  4030   0.977E+02
DAV:   2    -0.121367120057E+02   -0.24441E+03   -0.23008E+03  4074   0.284E+02
DAV:   3    -0.240030187651E+02   -0.11866E+02   -0.11513E+02  4424   0.727E+01
DAV:   4    -0.242784070431E+02   -0.27539E+00   -0.27506E+00  4778   0.107E+01
DAV:   5    -0.242911958909E+02   -0.12789E-01   -0.12788E-01  5424   0.227E+00    0.325E+01
DAV:   6    -0.253717827039E+02   -0.10806E+01   -0.38811E+01  4548   0.155E+02    0.168E+01
DAV:   7    -0.219774461048E+02    0.33943E+01   -0.10046E+01  5018   0.111E+02    0.104E+01
DAV:   8    -0.220145324262E+02   -0.37086E-01   -0.94167E-01  5442   0.922E+00    0.496E+00
DAV:   9    -0.219337486644E+02    0.80784E-01   -0.32096E-01  5122   0.169E+01    0.156E+00
DAV:  10    -0.219330915876E+02    0.65708E-03   -0.64918E-02  6018   0.506E+00    0.964E-01
DAV:  11    -0.219207191641E+02    0.12372E-01   -0.23190E-02  5510   0.505E+00    0.335E-01
DAV:  12    -0.219195073390E+02    0.12118E-02   -0.51837E-03  5968   0.227E+00    0.103E-01
DAV:  13    -0.219194826035E+02    0.24735E-04   -0.78015E-04  5910   0.469E-01    0.305E-02
DAV:  14    -0.219194845065E+02   -0.19029E-05   -0.24934E-05  5944   0.144E-01    0.303E-02
DAV:  15    -0.219194770396E+02    0.74669E-05   -0.13708E-05  4516   0.131E-01    0.567E-03
DAV:  16    -0.219194767141E+02    0.32550E-06   -0.81513E-07  2726   0.215E-02
   1 F= -.21919477E+02 E0= -.21920321E+02  d E =0.253243E-02
