<?xml version="1.0" encoding="ISO-8859-1"?>
<modeling>
 <generator>
  <i name="program" type="string">vasp </i>
  <i name="version" type="string">6.2.0  </i>
  <i name="subversion" type="string">18Jan21 (build Mar 17 2021 09:06:54) complex                          serial </i>
  <i name="platform" type="string">LinuxIFC </i>
  <i name="date" type="string">2021 06 11 </i>
  <i name="time" type="string">11:31:08 </i>
 </generator>
 <incar>
  <i type="string" name="PREC">normal</i>
  <i type="int" name="ICHARG">     1</i>
  <i type="int" name="IBRION">    -1</i>
  <i name="EDIFF">      0.00000100</i>
  <i type="int" name="NSW">     0</i>
  <i name="ENCUT">    270.00000000</i>
  <i type="int" name="NBANDS">    30</i>
  <i type="int" name="ISMEAR">     1</i>
  <i name="SIGMA">      0.20000000</i>
  <i type="logical" name="LCHARG"> T  </i>
  <i type="int" name="KPAR">     1</i>
  <i type="int" name="NCORE">     1</i>
  <i type="string" name="GGA">PE</i>
 </incar>
 <primitive_cell>
  <structure name="primitive_cell" >
   <crystal>
    <varray name="basis" >
     <v>       3.63500000       0.00000000       0.00000000 </v>
     <v>       0.00000000       3.63500000       0.00000000 </v>
     <v>       0.00000000       0.00000000       3.63500000 </v>
    </varray>
    <i name="volume">     48.03007287 </i>
    <varray name="rec_basis" >
     <v>       0.27510316       0.00000000       0.00000000 </v>
     <v>       0.00000000       0.27510316       0.00000000 </v>
     <v>       0.00000000       0.00000000       0.27510316 </v>
    </varray>
   </crystal>
   <varray name="positions" >
    <v>       0.00000000       0.00000000       0.00000000 </v>
    <v>       0.50000000       0.50000000       0.00000000 </v>
    <v>       0.50000000       0.00000000       0.50000000 </v>
    <v>       0.00000000       0.50000000       0.50000000 </v>
   </varray>
  </structure>
  <varray name="primitive_index" >
   <v type="int" >        1 </v>
   <v type="int" >        2 </v>
   <v type="int" >        3 </v>
   <v type="int" >        4 </v>
  </varray>
 </primitive_cell>
 <kpoints>
  <generation param="Monkhorst-Pack">
   <v type="int" name="divisions">       7        7        7 </v>
   <v name="usershift">      0.00000000       0.00000000       0.00000000 </v>
   <v name="genvec1">      0.14285714       0.00000000       0.00000000 </v>
   <v name="genvec2">      0.00000000       0.14285714       0.00000000 </v>
   <v name="genvec3">      0.00000000       0.00000000       0.14285714 </v>
   <v name="shift">      0.00000000       0.00000000       0.00000000 </v>
  </generation>
  <varray name="kpointlist" >
   <v>       0.00000000       0.00000000       0.00000000 </v>
   <v>       0.14285714       0.00000000       0.00000000 </v>
   <v>       0.00000000       0.14285714       0.00000000 </v>
   <v>       0.00000000       0.00000000       0.14285714 </v>
   <v>       0.28571429       0.00000000       0.00000000 </v>
   <v>       0.00000000       0.28571429       0.00000000 </v>
   <v>       0.00000000       0.00000000       0.28571429 </v>
   <v>       0.42857143       0.00000000       0.00000000 </v>
   <v>       0.00000000       0.42857143       0.00000000 </v>
   <v>       0.00000000       0.00000000       0.42857143 </v>
   <v>       0.14285714       0.14285714       0.00000000 </v>
   <v>       0.00000000       0.14285714       0.14285714 </v>
   <v>       0.14285714       0.00000000       0.14285714 </v>
   <v>       0.28571429       0.14285714       0.00000000 </v>
   <v>       0.00000000       0.28571429       0.14285714 </v>
   <v>       0.14285714       0.00000000       0.28571429 </v>
   <v>      -0.14285714       0.28571429       0.00000000 </v>
   <v>      -0.28571429       0.00000000       0.14285714 </v>
   <v>       0.00000000       0.14285714       0.28571429 </v>
   <v>       0.42857143       0.14285714       0.00000000 </v>
   <v>       0.00000000       0.42857143       0.14285714 </v>
   <v>       0.14285714       0.00000000       0.42857143 </v>
   <v>      -0.14285714       0.42857143       0.00000000 </v>
   <v>      -0.42857143       0.00000000       0.14285714 </v>
   <v>       0.00000000       0.14285714       0.42857143 </v>
   <v>       0.28571429       0.28571429       0.00000000 </v>
   <v>       0.00000000       0.28571429       0.28571429 </v>
   <v>       0.28571429       0.00000000       0.28571429 </v>
   <v>       0.42857143       0.28571429       0.00000000 </v>
   <v>       0.00000000       0.42857143       0.28571429 </v>
   <v>       0.28571429       0.00000000       0.42857143 </v>
   <v>      -0.28571429       0.42857143       0.00000000 </v>
   <v>      -0.42857143       0.00000000       0.28571429 </v>
   <v>       0.00000000       0.28571429       0.42857143 </v>
   <v>       0.42857143       0.42857143       0.00000000 </v>
   <v>       0.00000000       0.42857143       0.42857143 </v>
   <v>       0.42857143       0.00000000       0.42857143 </v>
   <v>       0.14285714       0.14285714       0.14285714 </v>
   <v>       0.28571429       0.14285714       0.14285714 </v>
   <v>       0.14285714       0.28571429       0.14285714 </v>
   <v>       0.14285714       0.14285714       0.28571429 </v>
   <v>       0.42857143       0.14285714       0.14285714 </v>
   <v>       0.14285714       0.42857143       0.14285714 </v>
   <v>       0.14285714       0.14285714       0.42857143 </v>
   <v>       0.28571429       0.28571429       0.14285714 </v>
   <v>       0.14285714       0.28571429       0.28571429 </v>
   <v>       0.28571429       0.14285714       0.28571429 </v>
   <v>       0.42857143       0.28571429       0.14285714 </v>
   <v>       0.14285714       0.42857143       0.28571429 </v>
   <v>       0.28571429       0.14285714       0.42857143 </v>
   <v>      -0.28571429       0.42857143       0.14285714 </v>
   <v>      -0.42857143       0.14285714       0.28571429 </v>
   <v>      -0.14285714       0.28571429       0.42857143 </v>
   <v>       0.42857143       0.42857143       0.14285714 </v>
   <v>       0.14285714       0.42857143       0.42857143 </v>
   <v>       0.42857143       0.14285714       0.42857143 </v>
   <v>       0.28571429       0.28571429       0.28571429 </v>
   <v>       0.42857143       0.28571429       0.28571429 </v>
   <v>       0.28571429       0.42857143       0.28571429 </v>
   <v>       0.28571429       0.28571429       0.42857143 </v>
   <v>       0.42857143       0.42857143       0.28571429 </v>
   <v>       0.28571429       0.42857143       0.42857143 </v>
   <v>       0.42857143       0.28571429       0.42857143 </v>
   <v>       0.42857143       0.42857143       0.42857143 </v>
  </varray>
  <varray name="weights" >
   <v>       0.00291545 </v>
   <v>       0.00583090 </v>
   <v>       0.00583090 </v>
   <v>       0.00583090 </v>
   <v>       0.00583090 </v>
   <v>       0.00583090 </v>
   <v>       0.00583090 </v>
   <v>       0.00583090 </v>
   <v>       0.00583090 </v>
   <v>       0.00583090 </v>
   <v>       0.01166181 </v>
   <v>       0.01166181 </v>
   <v>       0.01166181 </v>
   <v>       0.01166181 </v>
   <v>       0.01166181 </v>
   <v>       0.01166181 </v>
   <v>       0.01166181 </v>
   <v>       0.01166181 </v>
   <v>       0.01166181 </v>
   <v>       0.01166181 </v>
   <v>       0.01166181 </v>
   <v>       0.01166181 </v>
   <v>       0.01166181 </v>
   <v>       0.01166181 </v>
   <v>       0.01166181 </v>
   <v>       0.01166181 </v>
   <v>       0.01166181 </v>
   <v>       0.01166181 </v>
   <v>       0.01166181 </v>
   <v>       0.01166181 </v>
   <v>       0.01166181 </v>
   <v>       0.01166181 </v>
   <v>       0.01166181 </v>
   <v>       0.01166181 </v>
   <v>       0.01166181 </v>
   <v>       0.01166181 </v>
   <v>       0.01166181 </v>
   <v>       0.02332362 </v>
   <v>       0.02332362 </v>
   <v>       0.02332362 </v>
   <v>       0.02332362 </v>
   <v>       0.02332362 </v>
   <v>       0.02332362 </v>
   <v>       0.02332362 </v>
   <v>       0.02332362 </v>
   <v>       0.02332362 </v>
   <v>       0.02332362 </v>
   <v>       0.02332362 </v>
   <v>       0.02332362 </v>
   <v>       0.02332362 </v>
   <v>       0.02332362 </v>
   <v>       0.02332362 </v>
   <v>       0.02332362 </v>
   <v>       0.02332362 </v>
   <v>       0.02332362 </v>
   <v>       0.02332362 </v>
   <v>       0.02332362 </v>
   <v>       0.02332362 </v>
   <v>       0.02332362 </v>
   <v>       0.02332362 </v>
   <v>       0.02332362 </v>
   <v>       0.02332362 </v>
   <v>       0.02332362 </v>
   <v>       0.02332362 </v>
  </varray>
 </kpoints>
 <parameters>
  <separator name="general" >
   <i type="string" name="SYSTEM">unknown system</i>
   <i type="logical" name="LCOMPAT"> F  </i>
  </separator>
  <separator name="electronic" >
   <i type="string" name="PREC">normal</i>
   <i name="ENMAX">    270.00000000</i>
   <i name="ENAUG">    586.98000000</i>
   <i name="EDIFF">      0.00000100</i>
   <i type="int" name="IALGO">    38</i>
   <i type="int" name="IWAVPR">     0</i>
   <i type="int" name="NBANDS">    30</i>
   <i type="int" name="NBANDSLOW">    -1</i>
   <i type="int" name="NBANDSHIGH">    -1</i>
   <i name="NELECT">     40.00000000</i>
   <i type="int" name="TURBO">     0</i>
   <i type="int" name="IRESTART">     0</i>
   <i type="int" name="NREBOOT">     0</i>
   <i type="int" name="NMIN">     0</i>
   <i name="EREF">      0.00000000</i>
   <separator name="electronic smearing" >
    <i type="int" name="ISMEAR">     1</i>
    <i name="SIGMA">      0.20000000</i>
    <i name="KSPACING">      0.50000000</i>
    <i type="logical" name="KGAMMA"> T  </i>
    <i type="logical" name="KBLOWUP"> T  </i>
   </separator>
   <separator name="electronic projectors" >
    <i type="logical" name="LREAL"> F  </i>
    <v name="ROPT">      0.00000000      0.00000000      0.00000000      0.00000000</v>
    <i type="int" name="LMAXPAW">  -100</i>
    <i type="int" name="LMAXMIX">     2</i>
    <i type="logical" name="NLSPLINE"> F  </i>
   </separator>
   <separator name="electronic startup" >
    <i type="int" name="ISTART">     0</i>
    <i type="int" name="ICHARG">     1</i>
    <i type="int" name="INIWAV">     1</i>
   </separator>
   <separator name="electronic spin" >
    <i type="int" name="ISPIN">     1</i>
    <i type="logical" name="LNONCOLLINEAR"> F  </i>
    <v name="MAGMOM">      1.00000000      1.00000000      1.00000000      1.00000000</v>
    <i name="NUPDOWN">     -1.00000000</i>
    <i type="logical" name="LSORBIT"> F  </i>
    <v name="SAXIS">      0.00000000      0.00000000      1.00000000</v>
    <i type="logical" name="LSPIRAL"> F  </i>
    <v name="QSPIRAL">      0.00000000      0.00000000      0.00000000</v>
    <i type="logical" name="LZEROZ"> F  </i>
   </separator>
   <separator name="electronic exchange-correlation" >
    <i type="logical" name="LASPH"> F  </i>
    <i type="logical" name="LMETAGGA"> F  </i>
   </separator>
   <separator name="electronic convergence" >
    <i type="int" name="NELM">    60</i>
    <i type="int" name="NELMDL">    -5</i>
    <i type="int" name="NELMIN">     2</i>
    <i name="ENINI">    270.00000000</i>
    <separator name="electronic convergence detail" >
     <i type="logical" name="LDIAG"> T  </i>
     <i type="logical" name="LSUBROT"> F  </i>
     <i name="WEIMIN">      0.00000000</i>
     <i name="EBREAK">      0.00000001</i>
     <i name="DEPER">      0.30000000</i>
     <i type="int" name="NRMM">     4</i>
     <i name="TIME">      0.40000000</i>
    </separator>
   </separator>
   <separator name="electronic mixer" >
    <i name="AMIX">      0.40000000</i>
    <i name="BMIX">      1.00000000</i>
    <i name="AMIN">      0.10000000</i>
    <i name="AMIX_MAG">      1.60000000</i>
    <i name="BMIX_MAG">      1.00000000</i>
    <separator name="electronic mixer details" >
     <i type="int" name="IMIX">     4</i>
     <i type="logical" name="MIXFIRST"> F  </i>
     <i type="int" name="MAXMIX">   -45</i>
     <i name="WC">    100.00000000</i>
     <i type="int" name="INIMIX">     1</i>
     <i type="int" name="MIXPRE">     1</i>
     <i type="int" name="MREMOVE">     5</i>
    </separator>
   </separator>
   <separator name="electronic dipolcorrection" >
    <i type="logical" name="LDIPOL"> F  </i>
    <i type="logical" name="LMONO"> F  </i>
    <i type="int" name="IDIPOL">     0</i>
    <i name="EPSILON">      1.00000000</i>
    <v name="DIPOL">   -100.00000000   -100.00000000   -100.00000000</v>
    <i name="EFIELD">      0.00000000</i>
   </separator>
  </separator>
  <separator name="grids" >
   <i type="int" name="NGX">    16</i>
   <i type="int" name="NGY">    16</i>
   <i type="int" name="NGZ">    16</i>
   <i type="int" name="NGXF">    32</i>
   <i type="int" name="NGYF">    32</i>
   <i type="int" name="NGZF">    32</i>
   <i type="logical" name="ADDGRID"> F  </i>
  </separator>
  <separator name="ionic" >
   <i type="int" name="NSW">     0</i>
   <i type="int" name="IBRION">    -1</i>
   <i type="int" name="MDALGO">     0</i>
   <i type="int" name="ISIF">     2</i>
   <i name="PSTRESS">      0.00000000</i>
   <i name="EDIFFG">      0.00001000</i>
   <i type="int" name="NFREE">     0</i>
   <i name="POTIM">      0.50000000</i>
   <i name="SMASS">     -3.00000000</i>
   <i name="SCALEE">      1.00000000</i>
  </separator>
  <separator name="ionic md" >
   <i name="TEBEG">      0.00010000</i>
   <i name="TEEND">      0.00010000</i>
   <i type="int" name="NBLOCK">     1</i>
   <i type="int" name="KBLOCK">     1</i>
   <i type="int" name="NPACO">   256</i>
   <i name="APACO">     16.00000000</i>
  </separator>
  <separator name="symmetry" >
   <i type="int" name="ISYM">     2</i>
   <i name="SYMPREC">      0.00001000</i>
  </separator>
  <separator name="dos" >
   <i type="int" name="LORBIT">     0</i>
   <v name="RWIGS">     -1.00000000     -1.00000000     -1.00000000     -1.00000000</v>
   <i type="int" name="NEDOS">   301</i>
   <i name="EMIN">     10.00000000</i>
   <i name="EMAX">    -10.00000000</i>
   <i name="EFERMI">      0.00000000</i>
  </separator>
  <separator name="writing" >
   <i type="int" name="NWRITE">     2</i>
   <i type="logical" name="LWAVE"> T  </i>
   <i type="logical" name="LDOWNSAMPLE"> F  </i>
   <i type="logical" name="LCHARG"> T  </i>
   <i type="logical" name="LPARD"> F  </i>
   <i type="logical" name="LVTOT"> F  </i>
   <i type="logical" name="LVHAR"> F  </i>
   <i type="logical" name="LELF"> F  </i>
   <i type="logical" name="LOPTICS"> F  </i>
   <v name="STM">      0.00000000      0.00000000      0.00000000      0.00000000      0.00000000      0.00000000      0.00000000</v>
  </separator>
  <separator name="performance" >
   <i type="int" name="NPAR">     1</i>
   <i type="int" name="NSIM">     4</i>
   <i type="int" name="NBLK">    -1</i>
   <i type="logical" name="LPLANE"> T  </i>
   <i type="logical" name="LSCALAPACK"> F  </i>
   <i type="logical" name="LSCAAWARE"> F  </i>
   <i type="logical" name="LSCALU"> F  </i>
   <i type="logical" name="LASYNC"> F  </i>
   <i type="logical" name="LORBITALREAL"> F  </i>
  </separator>
  <separator name="miscellaneous" >
   <i type="int" name="IDIOT">     3</i>
   <i type="int" name="PHON_NSTRUCT">    -1</i>
   <i type="logical" name="LMUSIC"> F  </i>
   <v name="POMASS">    106.42000000    192.22000000    195.08000000     63.54600000</v>
   <v name="DARWINR">      0.00000000      0.00000000      0.00000000      0.00000000</v>
   <v name="DARWINV">      1.00000000      1.00000000      1.00000000      1.00000000</v>
   <i type="logical" name="LCORR"> T  </i>
  </separator>
  <i type="logical" name="GGA_COMPAT"> T  </i>
  <i type="logical" name="LBERRY"> F  </i>
  <i type="int" name="ICORELEVEL">     0</i>
  <i type="logical" name="LDAU"> F  </i>
  <i type="int" name="I_CONSTRAINED_M">     0</i>
  <separator name="electronic exchange-correlation" >
   <i type="string" name="GGA">PE</i>
   <i type="int" name="VOSKOWN">     0</i>
   <i type="logical" name="LHFCALC"> F  </i>
   <i type="string" name="PRECFOCK"></i>
   <i type="logical" name="LSYMGRAD"> F  </i>
   <i type="logical" name="LHFONE"> F  </i>
   <i type="logical" name="LRHFCALC"> F  </i>
   <i type="logical" name="LTHOMAS"> F  </i>
   <i type="logical" name="LMODELHF"> F  </i>
   <i type="logical" name="LFOCKACE"> F  </i>
   <i name="ENCUT4O">     -1.00000000</i>
   <i type="int" name="EXXOEP">     0</i>
   <i type="int" name="FOURORBIT">     0</i>
   <i name="AEXX">      0.00000000</i>
   <i name="HFALPHA">      0.00000000</i>
   <i name="MCALPHA">      0.00000000</i>
   <i name="ALDAX">      1.00000000</i>
   <i name="AGGAX">      1.00000000</i>
   <i name="ALDAC">      1.00000000</i>
   <i name="AGGAC">      1.00000000</i>
   <i type="int" name="NKREDX">     1</i>
   <i type="int" name="NKREDY">     1</i>
   <i type="int" name="NKREDZ">     1</i>
   <i type="logical" name="SHIFTRED"> F  </i>
   <i type="logical" name="ODDONLY"> F  </i>
   <i type="logical" name="EVENONLY"> F  </i>
   <i type="int" name="LMAXFOCK">     0</i>
   <i type="int" name="NMAXFOCKAE">     0</i>
   <i type="logical" name="LFOCKAEDFT"> F  </i>
   <i name="HFSCREEN">      0.00000000</i>
   <i name="HFSCREENC">      0.00000000</i>
   <i type="int" name="NBANDSGWLOW">     0</i>
  </separator>
  <separator name="vdW DFT" >
   <i type="logical" name="LUSE_VDW"> F  </i>
   <i name="Zab_VDW">     -0.84910000</i>
   <i name="PARAM1">      0.12340000</i>
   <i name="PARAM2">      1.00000000</i>
   <i name="PARAM3">      0.00000000</i>
  </separator>
  <separator name="model GW" >
   <i type="int" name="MODEL_GW">     0</i>
   <i name="MODEL_EPS0">      7.20451093</i>
   <i name="MODEL_ALPHA">      1.00000000</i>
  </separator>
  <separator name="linear response parameters" >
   <i type="logical" name="LEPSILON"> F  </i>
   <i type="logical" name="LRPA"> F  </i>
   <i type="logical" name="LNABLA"> F  </i>
   <i type="logical" name="LVEL"> F  </i>
   <i type="int" name="KINTER">     0</i>
   <i name="CSHIFT">      0.10000000</i>
   <i name="OMEGAMAX">     -1.00000000</i>
   <i name="DEG_THRESHOLD">      0.00200000</i>
   <i name="RTIME">     -0.10000000</i>
   <i name="WPLASMAI">      0.00000000</i>
   <v name="DFIELD">      0.00000000      0.00000000      0.00000000</v>
   <v name="WPLASMA">      0.00000000      0.00000000      0.00000000      0.00000000      0.00000000      0.00000000      0.00000000      0.00000000      0.00000000</v>
  </separator>
  <separator name="orbital magnetization" >
   <i type="logical" name="NUCIND"> F  </i>
   <v name="MAGPOS">      0.00000000      0.00000000      0.00000000</v>
   <i type="logical" name="LNICSALL"> T  </i>
   <i type="logical" name="ORBITALMAG"> F  </i>
   <i type="logical" name="LMAGBLOCH"> F  </i>
   <i type="logical" name="LCHIMAG"> F  </i>
   <i type="logical" name="LGAUGE"> T  </i>
   <i type="int" name="MAGATOM">     0</i>
   <v name="MAGDIPOL">      0.00000000      0.00000000      0.00000000</v>
   <v name="AVECCONST">      0.00000000      0.00000000      0.00000000</v>
  </separator>
  <separator name="response functions" >
   <i type="logical" name="LFINITE_TEMPERATURE"> F  </i>
   <i type="logical" name="LADDER"> F  </i>
   <i type="logical" name="LRPAFORCE"> F  </i>
   <i type="logical" name="LFXC"> F  </i>
   <i type="logical" name="LHARTREE"> T  </i>
   <i type="int" name="IBSE">     0</i>
   <v type="int" name="KPOINT">    -1     0     0     0</v>
   <i type="logical" name="LTCTC"> F  </i>
   <i type="logical" name="LTCTE"> F  </i>
   <i type="logical" name="LTETE"> F  </i>
   <i type="logical" name="LTRIPLET"> F  </i>
   <i type="logical" name="LFXCEPS"> F  </i>
   <i type="logical" name="LFXHEG"> F  </i>
   <i type="int" name="NATURALO">     2</i>
   <i type="logical" name="LHOLEGF"> F  </i>
   <i type="logical" name="L2ORDER"> F  </i>
   <i type="logical" name="LDMP1"> F  </i>
   <i type="logical" name="LMP2LT"> F  </i>
   <i type="logical" name="LSMP2LT"> F  </i>
   <i type="logical" name="LGWLF"> F  </i>
   <i name="ENCUTGW">     -2.00000000</i>
   <i name="ENCUTGWSOFT">     -2.00000000</i>
   <i name="ENCUTLF">     -1.00000000</i>
   <i type="logical" name="LESF_SPLINES"> F  </i>
   <i type="int" name="LMAXMP2">    -1</i>
   <i name="SCISSOR">      0.00000000</i>
   <i type="int" name="NOMEGA">     0</i>
   <i type="int" name="NOMEGAR">     0</i>
   <i type="int" name="NBANDSGW">    -1</i>
   <i type="int" name="NBANDSO">    -1</i>
   <i type="int" name="NBANDSV">    -1</i>
   <i type="int" name="NELM">     1</i>
   <i type="int" name="NELMHF">     1</i>
   <i type="int" name="DIM">     3</i>
   <i type="int" name="IESPILON">     4</i>
   <i type="int" name="ANTIRES">     0</i>
   <i name="OMEGAMAX">    -30.00000000</i>
   <i name="OMEGAMIN">    -30.00000000</i>
   <i name="OMEGATL">   -200.00000000</i>
   <i type="int" name="OMEGAGRID">     0</i>
   <i name="CSHIFT">     -0.10000000</i>
   <i type="logical" name="LSELFENERGY"> F  </i>
   <i type="logical" name="LSPECTRAL"> F  </i>
   <i type="logical" name="LSPECTRALGW"> F  </i>
   <i type="logical" name="LSINGLES"> F  </i>
   <i type="logical" name="LFERMIGW"> F  </i>
   <i type="logical" name="ODDONLYGW"> F  </i>
   <i type="logical" name="EVENONLYGW"> F  </i>
   <i type="int" name="NKREDLFX">     1</i>
   <i type="int" name="NKREDLFY">     1</i>
   <i type="int" name="NKREDLFZ">     1</i>
   <i type="int" name="MAXMEM">  2800</i>
   <i type="int" name="TELESCOPE">     0</i>
   <i type="int" name="NTAUPAR">    -1</i>
   <i type="int" name="NOMEGAPAR">    -1</i>
   <i name="DAMP_NEWTON">      0.80000001</i>
   <i name="LAMBDA">      1.00000000</i>
  </separator>
  <separator name="External order field" >
   <i name="OFIELD_KAPPA">      0.00000000</i>
   <v name="OFIELD_K">      0.00000000      0.00000000      0.00000000</v>
   <i name="OFIELD_Q6_NEAR">      0.00000000</i>
   <i name="OFIELD_Q6_FAR">      0.00000000</i>
   <i name="OFIELD_A">      0.00000000</i>
  </separator>
 </parameters>
 <atominfo>
  <atoms>       4 </atoms>
  <types>       4 </types>
  <array name="atoms" >
   <dimension dim="1">ion</dimension>
   <field type="string">element</field>
   <field type="int">atomtype</field>
   <set>
    <rc><c>Pd</c><c>   1</c></rc>
    <rc><c>Ir</c><c>   2</c></rc>
    <rc><c>Pt</c><c>   3</c></rc>
    <rc><c>Cu</c><c>   4</c></rc>
   </set>
  </array>
  <array name="atomtypes" >
   <dimension dim="1">type</dimension>
   <field type="int">atomspertype</field>
   <field type="string">element</field>
   <field>mass</field>
   <field>valence</field>
   <field type="string">pseudopotential</field>
   <set>
    <rc><c>   1</c><c>Pd</c><c>    106.42000000</c><c>     10.00000000</c><c>  PAW_PBE Pd 04Jan2005                  </c></rc>
    <rc><c>   1</c><c>Ir</c><c>    192.22000000</c><c>      9.00000000</c><c>  PAW_PBE Ir 06Sep2000                  </c></rc>
    <rc><c>   1</c><c>Pt</c><c>    195.08000000</c><c>     10.00000000</c><c>  PAW_PBE Pt 04Feb2005                  </c></rc>
    <rc><c>   1</c><c>Cu</c><c>     63.54600000</c><c>     11.00000000</c><c>  PAW_PBE Cu 22Jun2005                  </c></rc>
   </set>
  </array>
 </atominfo>
 <structure name="initialpos" >
  <crystal>
   <varray name="basis" >
    <v>       3.63500000       0.00000000       0.00000000 </v>
    <v>       0.00000000       3.63500000       0.00000000 </v>
    <v>       0.00000000       0.00000000       3.63500000 </v>
   </varray>
   <i name="volume">     48.03007287 </i>
   <varray name="rec_basis" >
    <v>       0.27510316       0.00000000       0.00000000 </v>
    <v>       0.00000000       0.27510316       0.00000000 </v>
    <v>       0.00000000       0.00000000       0.27510316 </v>
   </varray>
  </crystal>
  <varray name="positions" >
   <v>       0.00000000       0.00000000       0.00000000 </v>
   <v>       0.50000000       0.50000000       0.00000000 </v>
   <v>       0.50000000       0.00000000       0.50000000 </v>
   <v>       0.00000000       0.50000000       0.50000000 </v>
  </varray>
 </structure>
 <calculation>
  <scstep>
   <time name="dav">    0.74    0.76</time>
   <time name="total">    0.76    0.77</time>
   <energy>
    <i name="alphaZ">    294.32394985 </i>
    <i name="ewald">  -3641.45145672 </i>
    <i name="hartreedc">   -571.19890525 </i>
    <i name="XCdc">      6.42737968 </i>
    <i name="pawpsdc">   3282.45812088 </i>
    <i name="pawaedc">  -3257.47686163 </i>
    <i name="eentropy">     -0.00029349 </i>
    <i name="bandstr">    629.40449437 </i>
    <i name="atom">   3489.78669473 </i>
    <i name="e_fr_energy">    232.27312241 </i>
    <i name="e_wo_entrp">    232.27341590 </i>
    <i name="e_0_energy">    232.27322024 </i>
   </energy>
  </scstep>
  <scstep>
   <time name="dav">    0.74    0.74</time>
   <time name="total">    0.75    0.75</time>
   <energy>
    <i name="e_fr_energy">    -12.13671201 </i>
    <i name="e_wo_entrp">    -12.13211092 </i>
    <i name="e_0_energy">    -12.13517831 </i>
   </energy>
  </scstep>
  <scstep>
   <time name="dav">    0.80    0.80</time>
   <time name="total">    0.80    0.80</time>
   <energy>
    <i name="e_fr_energy">    -24.00301877 </i>
    <i name="e_wo_entrp">    -24.00008938 </i>
    <i name="e_0_energy">    -24.00204230 </i>
   </energy>
  </scstep>
  <scstep>
   <time name="dav">    0.87    0.87</time>
   <time name="total">    0.87    0.88</time>
   <energy>
    <i name="e_fr_energy">    -24.27840704 </i>
    <i name="e_wo_entrp">    -24.27549853 </i>
    <i name="e_0_energy">    -24.27743754 </i>
   </energy>
  </scstep>
  <scstep>
   <time name="dav">    0.89    0.89</time>
   <time name="total">    0.95    0.95</time>
   <energy>
    <i name="e_fr_energy">    -24.29119589 </i>
    <i name="e_wo_entrp">    -24.28828858 </i>
    <i name="e_0_energy">    -24.29022679 </i>
   </energy>
  </scstep>
  <scstep>
   <time name="dav">    0.77    0.77</time>
   <time name="total">    0.84    0.84</time>
   <energy>
    <i name="e_fr_energy">    -25.37178270 </i>
    <i name="e_wo_entrp">    -25.37574040 </i>
    <i name="e_0_energy">    -25.37310194 </i>
   </energy>
  </scstep>
  <scstep>
   <time name="dav">    0.84    0.84</time>
   <time name="total">    0.91    0.91</time>
   <energy>
    <i name="e_fr_energy">    -21.97744610 </i>
    <i name="e_wo_entrp">    -21.97964697 </i>
    <i name="e_0_energy">    -21.97817973 </i>
   </energy>
  </scstep>
  <scstep>
   <time name="dav">    0.89    0.89</time>
   <time name="total">    0.96    0.96</time>
   <energy>
    <i name="e_fr_energy">    -22.01453243 </i>
    <i name="e_wo_entrp">    -22.01246573 </i>
    <i name="e_0_energy">    -22.01384353 </i>
   </energy>
  </scstep>
  <scstep>
   <time name="dav">    0.85    0.85</time>
   <time name="total">    0.92    0.92</time>
   <energy>
    <i name="e_fr_energy">    -21.93374866 </i>
    <i name="e_wo_entrp">    -21.93688413 </i>
    <i name="e_0_energy">    -21.93479382 </i>
   </energy>
  </scstep>
  <scstep>
   <time name="dav">    0.97    0.97</time>
   <time name="total">    1.05    1.05</time>
   <energy>
    <i name="e_fr_energy">    -21.93309159 </i>
    <i name="e_wo_entrp">    -21.93450043 </i>
    <i name="e_0_energy">    -21.93356120 </i>
   </energy>
  </scstep>
  <scstep>
   <time name="dav">    0.91    0.91</time>
   <time name="total">    0.98    0.98</time>
   <energy>
    <i name="e_fr_energy">    -21.92071916 </i>
    <i name="e_wo_entrp">    -21.92297105 </i>
    <i name="e_0_energy">    -21.92146979 </i>
   </energy>
  </scstep>
  <scstep>
   <time name="dav">    0.97    0.97</time>
   <time name="total">    1.04    1.04</time>
   <energy>
    <i name="e_fr_energy">    -21.91950734 </i>
    <i name="e_wo_entrp">    -21.92207513 </i>
    <i name="e_0_energy">    -21.92036327 </i>
   </energy>
  </scstep>
  <scstep>
   <time name="dav">    0.96    0.96</time>
   <time name="total">    1.03    1.03</time>
   <energy>
    <i name="e_fr_energy">    -21.91948260 </i>
    <i name="e_wo_entrp">    -21.92202047 </i>
    <i name="e_0_energy">    -21.92032856 </i>
   </energy>
  </scstep>
  <scstep>
   <time name="dav">    0.96    0.96</time>
   <time name="total">    1.03    1.03</time>
   <energy>
    <i name="e_fr_energy">    -21.91948451 </i>
    <i name="e_wo_entrp">    -21.92202323 </i>
    <i name="e_0_energy">    -21.92033075 </i>
   </energy>
  </scstep>
  <scstep>
   <time name="dav">    0.77    0.77</time>
   <time name="total">    0.84    0.84</time>
   <energy>
    <i name="e_fr_energy">    -21.91947704 </i>
    <i name="e_wo_entrp">    -21.92201076 </i>
    <i name="e_0_energy">    -21.92032161 </i>
   </energy>
  </scstep>
  <scstep>
   <time name="dav">    0.56    0.56</time>
   <time name="total">    0.57    0.57</time>
   <energy>
    <i name="alphaZ">    294.32394985 </i>
    <i name="ewald">  -3641.45145672 </i>
    <i name="hartreedc">   -517.53422567 </i>
    <i name="XCdc">      4.59284605 </i>
    <i name="pawpsdc">   4531.77201516 </i>
    <i name="pawaedc">  -4522.97864518 </i>
    <i name="eentropy">      0.00253243 </i>
    <i name="bandstr">    339.56681265 </i>
    <i name="atom">   3489.78669473 </i>
    <i name="e_fr_energy">    -21.91947671 </i>
    <i name="e_wo_entrp">    -21.92200914 </i>
    <i name="e_0_energy">    -21.92032086 </i>
   </energy>
  </scstep>
  <structure>
   <crystal>
    <varray name="basis" >
     <v>       3.63500000       0.00000000       0.00000000 </v>
     <v>       0.00000000       3.63500000       0.00000000 </v>
     <v>       0.00000000       0.00000000       3.63500000 </v>
    </varray>
    <i name="volume">     48.03007287 </i>
    <varray name="rec_basis" >
     <v>       0.27510316       0.00000000       0.00000000 </v>
     <v>       0.00000000       0.27510316       0.00000000 </v>
     <v>       0.00000000       0.00000000       0.27510316 </v>
    </varray>
   </crystal>
   <varray name="positions" >
    <v>       0.00000000       0.00000000       0.00000000 </v>
    <v>       0.50000000       0.50000000       0.00000000 </v>
    <v>       0.50000000       0.00000000       0.50000000 </v>
    <v>       0.00000000       0.50000000       0.50000000 </v>
   </varray>
  </structure>
  <varray name="forces" >
   <v>      -0.00000000       0.00000000      -0.00000000 </v>
   <v>      -0.00000000       0.00000000      -0.00000000 </v>
   <v>      -0.00000000       0.00000000       0.00000000 </v>
   <v>       0.00000000      -0.00000000       0.00000000 </v>
  </varray>
  <varray name="stress" >
   <v>     591.84152496       0.00000000       0.00000000 </v>
   <v>       0.00000000     621.75400646       0.00000000 </v>
   <v>       0.00000000       0.00000000     595.27503472 </v>
  </varray>
  <energy>
   <i name="e_fr_energy">    -21.91947671 </i>
   <i name="e_wo_entrp">    -21.92200914 </i>
   <i name="e_0_energy">    -21.92032086 </i>
  </energy>
  <time name="totalsc">   15.01   15.03</time>
  <eigenvalues>
   <array>
    <dimension dim="1">band</dimension>
    <dimension dim="2">kpoint</dimension>
    <dimension dim="3">spin</dimension>
    <field>eigene</field>
    <field>occ</field>
    <set>
     <set comment="spin 1">
      <set comment="kpoint 1">
       <r>    1.5559    1.0000 </r>
       <r>    3.7755    1.0000 </r>
       <r>    4.9894    1.0000 </r>
       <r>    5.0562    1.0000 </r>
       <r>    5.1031    1.0000 </r>
       <r>    5.2536    1.0000 </r>
       <r>    5.2854    1.0000 </r>
       <r>    8.5004    1.0000 </r>
       <r>    8.5196    1.0000 </r>
       <r>    8.6790    1.0000 </r>
       <r>   10.1672    1.0000 </r>
       <r>   10.3464    1.0000 </r>
       <r>   11.2503    1.0000 </r>
       <r>   11.4806    1.0000 </r>
       <r>   11.6512    1.0000 </r>
       <r>   12.5749    0.1884 </r>
       <r>   12.8195   -0.0219 </r>
       <r>   12.9884   -0.0013 </r>
       <r>   13.3533   -0.0000 </r>
       <r>   14.0082   -0.0000 </r>
       <r>   14.4974   -0.0000 </r>
       <r>   14.5039   -0.0000 </r>
       <r>   14.5372   -0.0000 </r>
       <r>   14.7870   -0.0000 </r>
       <r>   23.2986    0.0000 </r>
       <r>   23.4828    0.0000 </r>
       <r>   24.1302    0.0000 </r>
       <r>   24.4427    0.0000 </r>
       <r>   24.7241    0.0000 </r>
       <r>   25.2606    0.0000 </r>
      </set>
      <set comment="kpoint 2">
       <r>    1.8435    1.0000 </r>
       <r>    3.9831    1.0000 </r>
       <r>    5.1297    1.0000 </r>
       <r>    5.1618    1.0000 </r>
       <r>    5.2944    1.0000 </r>
       <r>    5.4367    1.0000 </r>
       <r>    5.4981    1.0000 </r>
       <r>    8.3489    1.0000 </r>
       <r>    8.6062    1.0000 </r>
       <r>    8.7896    1.0000 </r>
       <r>   10.1475    1.0000 </r>
       <r>   10.2367    1.0000 </r>
       <r>   10.9345    1.0000 </r>
       <r>   11.1849    1.0000 </r>
       <r>   11.2405    1.0000 </r>
       <r>   11.3622    1.0000 </r>
       <r>   12.5510    0.2712 </r>
       <r>   12.6557    0.0085 </r>
       <r>   13.0004   -0.0010 </r>
       <r>   13.0765   -0.0002 </r>
       <r>   13.5172   -0.0000 </r>
       <r>   14.7857   -0.0000 </r>
       <r>   16.0294   -0.0000 </r>
       <r>   16.0587   -0.0000 </r>
       <r>   22.9158    0.0000 </r>
       <r>   23.2698    0.0000 </r>
       <r>   24.6702    0.0000 </r>
       <r>   24.8117    0.0000 </r>
       <r>   24.8416    0.0000 </r>
       <r>   26.3338    0.0000 </r>
      </set>
      <set comment="kpoint 3">
       <r>    1.8752    1.0000 </r>
       <r>    3.9988    1.0000 </r>
       <r>    5.0985    1.0000 </r>
       <r>    5.2059    1.0000 </r>
       <r>    5.2613    1.0000 </r>
       <r>    5.4370    1.0000 </r>
       <r>    5.5116    1.0000 </r>
       <r>    8.5278    1.0000 </r>
       <r>    8.6208    1.0000 </r>
       <r>    8.6350    1.0000 </r>
       <r>   10.0461    1.0000 </r>
       <r>   10.3808    1.0000 </r>
       <r>   10.7673    1.0000 </r>
       <r>   11.0280    1.0000 </r>
       <r>   11.4092    1.0000 </r>
       <r>   12.3026    1.0204 </r>
       <r>   12.5395    0.3149 </r>
       <r>   12.7561   -0.0345 </r>
       <r>   12.9755   -0.0018 </r>
       <r>   12.9889   -0.0013 </r>
       <r>   13.0984   -0.0001 </r>
       <r>   13.5597   -0.0000 </r>
       <r>   16.1901   -0.0000 </r>
       <r>   16.4285   -0.0000 </r>
       <r>   22.5582    0.0000 </r>
       <r>   23.8968    0.0000 </r>
       <r>   24.4580    0.0000 </r>
       <r>   24.6448    0.0000 </r>
       <r>   25.1499    0.0000 </r>
       <r>   26.0622    0.0000 </r>
      </set>
      <set comment="kpoint 4">
       <r>    1.8779    1.0000 </r>
       <r>    4.0062    1.0000 </r>
       <r>    5.2186    1.0000 </r>
       <r>    5.2653    1.0000 </r>
       <r>    5.2989    1.0000 </r>
       <r>    5.3737    1.0000 </r>
       <r>    5.3742    1.0000 </r>
       <r>    8.3212    1.0000 </r>
       <r>    8.6210    1.0000 </r>
       <r>    8.7900    1.0000 </r>
       <r>   10.0769    1.0000 </r>
       <r>   10.3297    1.0000 </r>
       <r>   10.7346    1.0000 </r>
       <r>   11.2623    1.0000 </r>
       <r>   11.4824    1.0000 </r>
       <r>   11.6313    1.0000 </r>
       <r>   12.3247    1.0015 </r>
       <r>   12.6041    0.1048 </r>
       <r>   12.8896   -0.0087 </r>
       <r>   13.1703   -0.0000 </r>
       <r>   13.5845   -0.0000 </r>
       <r>   13.9956   -0.0000 </r>
       <r>   16.0997   -0.0000 </r>
       <r>   16.3709   -0.0000 </r>
       <r>   22.2413    0.0000 </r>
       <r>   24.0173    0.0000 </r>
       <r>   24.4910    0.0000 </r>
       <r>   24.8610    0.0000 </r>
       <r>   25.2535    0.0000 </r>
       <r>   25.9447    0.0000 </r>
      </set>
      <set comment="kpoint 5">
       <r>    2.6238    1.0000 </r>
       <r>    4.5337    1.0000 </r>
       <r>    5.4028    1.0000 </r>
       <r>    5.4519    1.0000 </r>
       <r>    5.8582    1.0000 </r>
       <r>    5.9727    1.0000 </r>
       <r>    6.1164    1.0000 </r>
       <r>    7.9242    1.0000 </r>
       <r>    8.8383    1.0000 </r>
       <r>    9.1141    1.0000 </r>
       <r>    9.6490    1.0000 </r>
       <r>    9.6718    1.0000 </r>
       <r>    9.7525    1.0000 </r>
       <r>   10.2822    1.0000 </r>
       <r>   10.4398    1.0000 </r>
       <r>   11.2105    1.0000 </r>
       <r>   11.2246    1.0000 </r>
       <r>   11.7714    1.0000 </r>
       <r>   11.9620    1.0005 </r>
       <r>   12.2718    1.0333 </r>
       <r>   12.8626   -0.0129 </r>
       <r>   14.7838   -0.0000 </r>
       <r>   18.1651    0.0000 </r>
       <r>   18.2537    0.0000 </r>
       <r>   21.8285    0.0000 </r>
       <r>   23.2002    0.0000 </r>
       <r>   24.1945    0.0000 </r>
       <r>   24.2894    0.0000 </r>
       <r>   24.6925    0.0000 </r>
       <r>   26.5554    0.0000 </r>
      </set>
      <set comment="kpoint 6">
       <r>    2.7709    1.0000 </r>
       <r>    4.5753    1.0000 </r>
       <r>    5.2801    1.0000 </r>
       <r>    5.4791    1.0000 </r>
       <r>    5.8542    1.0000 </r>
       <r>    5.9662    1.0000 </r>
       <r>    6.1781    1.0000 </r>
       <r>    8.1522    1.0000 </r>
       <r>    8.9852    1.0000 </r>
       <r>    8.9934    1.0000 </r>
       <r>    9.6595    1.0000 </r>
       <r>    9.7213    1.0000 </r>
       <r>    9.7284    1.0000 </r>
       <r>   10.4521    1.0000 </r>
       <r>   10.7656    1.0000 </r>
       <r>   11.2687    1.0000 </r>
       <r>   11.5867    1.0000 </r>
       <r>   11.7077    1.0000 </r>
       <r>   11.9719    1.0007 </r>
       <r>   12.1380    1.0151 </r>
       <r>   12.4645    0.6256 </r>
       <r>   12.9568   -0.0026 </r>
       <r>   18.3550    0.0000 </r>
       <r>   18.3852    0.0000 </r>
       <r>   21.5985    0.0000 </r>
       <r>   23.8518    0.0000 </r>
       <r>   24.0493    0.0000 </r>
       <r>   24.2415    0.0000 </r>
       <r>   25.5103    0.0000 </r>
       <r>   25.6463    0.0000 </r>
      </set>
      <set comment="kpoint 7">
       <r>    2.7850    1.0000 </r>
       <r>    4.6048    1.0000 </r>
       <r>    5.5221    1.0000 </r>
       <r>    5.7165    1.0000 </r>
       <r>    5.8518    1.0000 </r>
       <r>    5.8779    1.0000 </r>
       <r>    5.8794    1.0000 </r>
       <r>    7.8550    1.0000 </r>
       <r>    8.8511    1.0000 </r>
       <r>    9.1156    1.0000 </r>
       <r>    9.6651    1.0000 </r>
       <r>    9.7152    1.0000 </r>
       <r>    9.7206    1.0000 </r>
       <r>   10.3961    1.0000 </r>
       <r>   10.5547    1.0000 </r>
       <r>   11.1995    1.0000 </r>
       <r>   11.5452    1.0000 </r>
       <r>   11.5950    1.0000 </r>
       <r>   11.8639    1.0000 </r>
       <r>   12.1173    1.0113 </r>
       <r>   12.4838    0.5452 </r>
       <r>   13.9725   -0.0000 </r>
       <r>   18.3252    0.0000 </r>
       <r>   18.3915    0.0000 </r>
       <r>   21.1353    0.0000 </r>
       <r>   24.0943    0.0000 </r>
       <r>   24.2399    0.0000 </r>
       <r>   24.3814    0.0000 </r>
       <r>   25.2301    0.0000 </r>
       <r>   25.9559    0.0000 </r>
      </set>
      <set comment="kpoint 8">
       <r>    3.5124    1.0000 </r>
       <r>    5.1499    1.0000 </r>
       <r>    5.5143    1.0000 </r>
       <r>    5.7770    1.0000 </r>
       <r>    6.7342    1.0000 </r>
       <r>    6.7799    1.0000 </r>
       <r>    6.8012    1.0000 </r>
       <r>    7.4931    1.0000 </r>
       <r>    8.1228    1.0000 </r>
       <r>    8.1691    1.0000 </r>
       <r>    9.2760    1.0000 </r>
       <r>    9.5440    1.0000 </r>
       <r>    9.5527    1.0000 </r>
       <r>    9.5574    1.0000 </r>
       <r>    9.8840    1.0000 </r>
       <r>   10.3649    1.0000 </r>
       <r>   11.0178    1.0000 </r>
       <r>   11.0922    1.0000 </r>
       <r>   11.2123    1.0000 </r>
       <r>   11.5007    1.0000 </r>
       <r>   12.7320   -0.0352 </r>
       <r>   14.7827   -0.0000 </r>
       <r>   20.2981    0.0000 </r>
       <r>   20.4368    0.0000 </r>
       <r>   21.2673    0.0000 </r>
       <r>   22.6689    0.0000 </r>
       <r>   22.8799    0.0000 </r>
       <r>   23.2065    0.0000 </r>
       <r>   23.6938    0.0000 </r>
       <r>   27.1572    0.0000 </r>
      </set>
      <set comment="kpoint 9">
       <r>    3.9725    1.0000 </r>
       <r>    4.9884    1.0000 </r>
       <r>    5.3324    1.0000 </r>
       <r>    5.7683    1.0000 </r>
       <r>    6.6791    1.0000 </r>
       <r>    6.7010    1.0000 </r>
       <r>    6.9683    1.0000 </r>
       <r>    7.7764    1.0000 </r>
       <r>    8.4862    1.0000 </r>
       <r>    8.5033    1.0000 </r>
       <r>    9.2205    1.0000 </r>
       <r>    9.5388    1.0000 </r>
       <r>    9.5900    1.0000 </r>
       <r>    9.5914    1.0000 </r>
       <r>   10.2685    1.0000 </r>
       <r>   10.5542    1.0000 </r>
       <r>   10.5614    1.0000 </r>
       <r>   10.8769    1.0000 </r>
       <r>   11.1000    1.0000 </r>
       <r>   11.4366    1.0000 </r>
       <r>   12.4088    0.8285 </r>
       <r>   12.9470   -0.0031 </r>
       <r>   20.4278    0.0000 </r>
       <r>   20.5962    0.0000 </r>
       <r>   21.1065    0.0000 </r>
       <r>   22.4636    0.0000 </r>
       <r>   22.7022    0.0000 </r>
       <r>   23.5894    0.0000 </r>
       <r>   25.2804    0.0000 </r>
       <r>   25.6965    0.0000 </r>
      </set>
      <set comment="kpoint 10">
       <r>    4.0363    1.0000 </r>
       <r>    4.9457    1.0000 </r>
       <r>    5.6580    1.0000 </r>
       <r>    6.1601    1.0000 </r>
       <r>    6.5031    1.0000 </r>
       <r>    6.7992    1.0000 </r>
       <r>    6.8249    1.0000 </r>
       <r>    7.3101    1.0000 </r>
       <r>    8.0938    1.0000 </r>
       <r>    8.1618    1.0000 </r>
       <r>    9.2308    1.0000 </r>
       <r>    9.5381    1.0000 </r>
       <r>    9.6166    1.0000 </r>
       <r>    9.6220    1.0000 </r>
       <r>    9.9555    1.0000 </r>
       <r>   10.5263    1.0000 </r>
       <r>   10.7447    1.0000 </r>
       <r>   10.8174    1.0000 </r>
       <r>   11.2836    1.0000 </r>
       <r>   11.5696    1.0000 </r>
       <r>   12.1797    1.0243 </r>
       <r>   13.9569   -0.0000 </r>
       <r>   20.3847    0.0000 </r>
       <r>   20.5884    0.0000 </r>
       <r>   20.7240    0.0000 </r>
       <r>   22.4417    0.0000 </r>
       <r>   22.8643    0.0000 </r>
       <r>   24.2057    0.0000 </r>
       <r>   24.6273    0.0000 </r>
       <r>   26.2335    0.0000 </r>
      </set>
      <set comment="kpoint 11">
       <r>    2.1542    1.0000 </r>
       <r>    4.2005    1.0000 </r>
       <r>    5.2710    1.0000 </r>
       <r>    5.3202    1.0000 </r>
       <r>    5.4398    1.0000 </r>
       <r>    5.5314    1.0000 </r>
       <r>    5.7641    1.0000 </r>
       <r>    8.3229    1.0000 </r>
       <r>    8.6895    1.0000 </r>
       <r>    8.7893    1.0000 </r>
       <r>   10.0434    1.0000 </r>
       <r>   10.1988    1.0000 </r>
       <r>   10.5034    1.0000 </r>
       <r>   10.5288    1.0000 </r>
       <r>   11.1342    1.0000 </r>
       <r>   11.5354    1.0000 </r>
       <r>   11.6903    1.0000 </r>
       <r>   12.3969    0.8637 </r>
       <r>   12.4984    0.4836 </r>
       <r>   12.7808   -0.0306 </r>
       <r>   13.6904   -0.0000 </r>
       <r>   14.5682   -0.0000 </r>
       <r>   15.5783   -0.0000 </r>
       <r>   17.2544   -0.0000 </r>
       <r>   22.3316    0.0000 </r>
       <r>   23.9303    0.0000 </r>
       <r>   24.6065    0.0000 </r>
       <r>   24.8606    0.0000 </r>
       <r>   25.0881    0.0000 </r>
       <r>   26.0193    0.0000 </r>
      </set>
      <set comment="kpoint 12">
       <r>    2.1771    1.0000 </r>
       <r>    4.2242    1.0000 </r>
       <r>    5.2763    1.0000 </r>
       <r>    5.3656    1.0000 </r>
       <r>    5.4486    1.0000 </r>
       <r>    5.5851    1.0000 </r>
       <r>    5.6656    1.0000 </r>
       <r>    8.3028    1.0000 </r>
       <r>    8.7024    1.0000 </r>
       <r>    8.7859    1.0000 </r>
       <r>   10.0055    1.0000 </r>
       <r>   10.2198    1.0000 </r>
       <r>   10.4384    1.0000 </r>
       <r>   10.6691    1.0000 </r>
       <r>   11.2678    1.0000 </r>
       <r>   11.5299    1.0000 </r>
       <r>   11.8866    1.0001 </r>
       <r>   12.2323    1.0344 </r>
       <r>   12.3177    1.0085 </r>
       <r>   12.6624    0.0006 </r>
       <r>   13.3457   -0.0000 </r>
       <r>   14.5087   -0.0000 </r>
       <r>   16.0943   -0.0000 </r>
       <r>   17.1106   -0.0000 </r>
       <r>   22.2420    0.0000 </r>
       <r>   23.5528    0.0000 </r>
       <r>   24.4436    0.0000 </r>
       <r>   24.9547    0.0000 </r>
       <r>   25.7178    0.0000 </r>
       <r>   26.2370    0.0000 </r>
      </set>
      <set comment="kpoint 13">
       <r>    2.1557    1.0000 </r>
       <r>    4.2087    1.0000 </r>
       <r>    5.2958    1.0000 </r>
       <r>    5.3406    1.0000 </r>
       <r>    5.4919    1.0000 </r>
       <r>    5.5837    1.0000 </r>
       <r>    5.6373    1.0000 </r>
       <r>    8.2025    1.0000 </r>
       <r>    8.6861    1.0000 </r>
       <r>    8.8665    1.0000 </r>
       <r>   10.0999    1.0000 </r>
       <r>   10.1715    1.0000 </r>
       <r>   10.4378    1.0000 </r>
       <r>   10.7863    1.0000 </r>
       <r>   11.0359    1.0000 </r>
       <r>   11.1387    1.0000 </r>
       <r>   11.3480    1.0000 </r>
       <r>   12.5164    0.4080 </r>
       <r>   12.8255   -0.0206 </r>
       <r>   12.9515   -0.0029 </r>
       <r>   13.8903   -0.0000 </r>
       <r>   14.8219   -0.0000 </r>
       <r>   15.1802   -0.0000 </r>
       <r>   17.2354   -0.0000 </r>
       <r>   22.2084    0.0000 </r>
       <r>   23.9166    0.0000 </r>
       <r>   24.5725    0.0000 </r>
       <r>   24.9333    0.0000 </r>
       <r>   25.2711    0.0000 </r>
       <r>   26.1124    0.0000 </r>
      </set>
      <set comment="kpoint 14">
       <r>    2.9153    1.0000 </r>
       <r>    4.7392    1.0000 </r>
       <r>    5.5997    1.0000 </r>
       <r>    5.6134    1.0000 </r>
       <r>    5.9771    1.0000 </r>
       <r>    5.9789    1.0000 </r>
       <r>    6.3400    1.0000 </r>
       <r>    7.8947    1.0000 </r>
       <r>    8.7324    1.0000 </r>
       <r>    9.1149    1.0000 </r>
       <r>    9.3306    1.0000 </r>
       <r>    9.4657    1.0000 </r>
       <r>    9.6962    1.0000 </r>
       <r>    9.9998    1.0000 </r>
       <r>   10.4757    1.0000 </r>
       <r>   10.6030    1.0000 </r>
       <r>   11.1382    1.0000 </r>
       <r>   11.8058    1.0000 </r>
       <r>   11.9253    1.0002 </r>
       <r>   12.4198    0.7930 </r>
       <r>   13.4763   -0.0000 </r>
       <r>   13.9101   -0.0000 </r>
       <r>   16.8934   -0.0000 </r>
       <r>   19.1092    0.0000 </r>
       <r>   21.1488    0.0000 </r>
       <r>   23.0679    0.0000 </r>
       <r>   24.0775    0.0000 </r>
       <r>   24.9603    0.0000 </r>
       <r>   26.2564    0.0000 </r>
       <r>   27.0730    0.0000 </r>
      </set>
      <set comment="kpoint 15">
       <r>    3.0204    1.0000 </r>
       <r>    4.7919    1.0000 </r>
       <r>    5.4621    1.0000 </r>
       <r>    5.6170    1.0000 </r>
       <r>    5.9346    1.0000 </r>
       <r>    6.1006    1.0000 </r>
       <r>    6.3752    1.0000 </r>
       <r>    8.0451    1.0000 </r>
       <r>    8.9060    1.0000 </r>
       <r>    9.0277    1.0000 </r>
       <r>    9.3167    1.0000 </r>
       <r>    9.5343    1.0000 </r>
       <r>    9.7622    1.0000 </r>
       <r>    9.8152    1.0000 </r>
       <r>   10.5518    1.0000 </r>
       <r>   11.1212    1.0000 </r>
       <r>   11.3404    1.0000 </r>
       <r>   11.4052    1.0000 </r>
       <r>   11.8786    1.0001 </r>
       <r>   12.3077    1.0169 </r>
       <r>   12.7443   -0.0354 </r>
       <r>   13.3445   -0.0000 </r>
       <r>   17.3405   -0.0000 </r>
       <r>   18.9929    0.0000 </r>
       <r>   21.0211    0.0000 </r>
       <r>   23.2376    0.0000 </r>
       <r>   24.3877    0.0000 </r>
       <r>   24.8407    0.0000 </r>
       <r>   25.8048    0.0000 </r>
       <r>   27.2798    0.0000 </r>
      </set>
      <set comment="kpoint 16">
       <r>    3.0347    1.0000 </r>
       <r>    4.8018    1.0000 </r>
       <r>    5.6862    1.0000 </r>
       <r>    5.7654    1.0000 </r>
       <r>    5.8557    1.0000 </r>
       <r>    6.0909    1.0000 </r>
       <r>    6.1924    1.0000 </r>
       <r>    7.7618    1.0000 </r>
       <r>    8.9124    1.0000 </r>
       <r>    9.0486    1.0000 </r>
       <r>    9.1607    1.0000 </r>
       <r>    9.5378    1.0000 </r>
       <r>    9.6991    1.0000 </r>
       <r>    9.9483    1.0000 </r>
       <r>   10.4562    1.0000 </r>
       <r>   10.5857    1.0000 </r>
       <r>   11.3580    1.0000 </r>
       <r>   11.8946    1.0001 </r>
       <r>   11.9980    1.0013 </r>
       <r>   12.3483    0.9702 </r>
       <r>   13.0742   -0.0002 </r>
       <r>   13.4209   -0.0000 </r>
       <r>   17.0707   -0.0000 </r>
       <r>   19.0466    0.0000 </r>
       <r>   20.9870    0.0000 </r>
       <r>   23.1434    0.0000 </r>
       <r>   24.7389    0.0000 </r>
       <r>   24.8760    0.0000 </r>
       <r>   25.9157    0.0000 </r>
       <r>   26.6062    0.0000 </r>
      </set>
      <set comment="kpoint 17">
       <r>    3.0268    1.0000 </r>
       <r>    4.7673    1.0000 </r>
       <r>    5.4904    1.0000 </r>
       <r>    5.6231    1.0000 </r>
       <r>    5.9791    1.0000 </r>
       <r>    5.9926    1.0000 </r>
       <r>    6.3879    1.0000 </r>
       <r>    8.0575    1.0000 </r>
       <r>    8.8965    1.0000 </r>
       <r>    9.0359    1.0000 </r>
       <r>    9.2923    1.0000 </r>
       <r>    9.5033    1.0000 </r>
       <r>    9.7754    1.0000 </r>
       <r>    9.9064    1.0000 </r>
       <r>   10.5585    1.0000 </r>
       <r>   10.8965    1.0000 </r>
       <r>   11.4728    1.0000 </r>
       <r>   11.6244    1.0000 </r>
       <r>   11.9913    1.0011 </r>
       <r>   12.3023    1.0206 </r>
       <r>   12.7104   -0.0315 </r>
       <r>   13.1249   -0.0000 </r>
       <r>   17.1506   -0.0000 </r>
       <r>   19.0744    0.0000 </r>
       <r>   21.0919    0.0000 </r>
       <r>   23.3172    0.0000 </r>
       <r>   24.6704    0.0000 </r>
       <r>   24.7521    0.0000 </r>
       <r>   25.8564    0.0000 </r>
       <r>   26.4620    0.0000 </r>
      </set>
      <set comment="kpoint 18">
       <r>    2.9133    1.0000 </r>
       <r>    4.7498    1.0000 </r>
       <r>    5.5773    1.0000 </r>
       <r>    5.6052    1.0000 </r>
       <r>    5.9255    1.0000 </r>
       <r>    6.1185    1.0000 </r>
       <r>    6.3194    1.0000 </r>
       <r>    7.8166    1.0000 </r>
       <r>    8.9049    1.0000 </r>
       <r>    9.0422    1.0000 </r>
       <r>    9.1551    1.0000 </r>
       <r>    9.5367    1.0000 </r>
       <r>    9.6736    1.0000 </r>
       <r>    9.9946    1.0000 </r>
       <r>   10.4047    1.0000 </r>
       <r>   10.5025    1.0000 </r>
       <r>   11.1591    1.0000 </r>
       <r>   11.8996    1.0001 </r>
       <r>   12.1048    1.0094 </r>
       <r>   12.5699    0.2048 </r>
       <r>   13.3416   -0.0000 </r>
       <r>   13.9052   -0.0000 </r>
       <r>   16.8556   -0.0000 </r>
       <r>   19.0409    0.0000 </r>
       <r>   21.2240    0.0000 </r>
       <r>   23.0288    0.0000 </r>
       <r>   24.0540    0.0000 </r>
       <r>   24.8728    0.0000 </r>
       <r>   26.3404    0.0000 </r>
       <r>   26.9006    0.0000 </r>
      </set>
      <set comment="kpoint 19">
       <r>    3.0307    1.0000 </r>
       <r>    4.8120    1.0000 </r>
       <r>    5.6988    1.0000 </r>
       <r>    5.7703    1.0000 </r>
       <r>    5.8273    1.0000 </r>
       <r>    6.0700    1.0000 </r>
       <r>    6.2063    1.0000 </r>
       <r>    7.8265    1.0000 </r>
       <r>    8.7439    1.0000 </r>
       <r>    9.1154    1.0000 </r>
       <r>    9.3494    1.0000 </r>
       <r>    9.5003    1.0000 </r>
       <r>    9.6994    1.0000 </r>
       <r>    9.9229    1.0000 </r>
       <r>   10.5755    1.0000 </r>
       <r>   10.6634    1.0000 </r>
       <r>   11.2452    1.0000 </r>
       <r>   11.7842    1.0000 </r>
       <r>   11.8459    1.0000 </r>
       <r>   11.9849    1.0009 </r>
       <r>   13.4395   -0.0000 </r>
       <r>   13.4428   -0.0000 </r>
       <r>   17.2853   -0.0000 </r>
       <r>   19.0415    0.0000 </r>
       <r>   20.8758    0.0000 </r>
       <r>   23.0283    0.0000 </r>
       <r>   24.6051    0.0000 </r>
       <r>   25.0021    0.0000 </r>
       <r>   25.8232    0.0000 </r>
       <r>   27.5912    0.0000 </r>
      </set>
      <set comment="kpoint 20">
       <r>    3.8038    1.0000 </r>
       <r>    5.3602    1.0000 </r>
       <r>    5.6891    1.0000 </r>
       <r>    5.9510    1.0000 </r>
       <r>    6.6806    1.0000 </r>
       <r>    6.8021    1.0000 </r>
       <r>    6.9706    1.0000 </r>
       <r>    7.4726    1.0000 </r>
       <r>    7.8884    1.0000 </r>
       <r>    8.1652    1.0000 </r>
       <r>    8.8987    1.0000 </r>
       <r>    8.9589    1.0000 </r>
       <r>    9.5469    1.0000 </r>
       <r>    9.8281    1.0000 </r>
       <r>    9.9711    1.0000 </r>
       <r>   10.3012    1.0000 </r>
       <r>   10.7457    1.0000 </r>
       <r>   11.3689    1.0000 </r>
       <r>   11.4252    1.0000 </r>
       <r>   11.9597    1.0005 </r>
       <r>   12.6643   -0.0015 </r>
       <r>   13.9698   -0.0000 </r>
       <r>   18.4175    0.0000 </r>
       <r>   19.9897    0.0000 </r>
       <r>   21.2419    0.0000 </r>
       <r>   22.1589    0.0000 </r>
       <r>   23.4163    0.0000 </r>
       <r>   24.6358    0.0000 </r>
       <r>   25.6382    0.0000 </r>
       <r>   28.1781    0.0000 </r>
      </set>
      <set comment="kpoint 21">
       <r>    4.1826    1.0000 </r>
       <r>    5.1970    1.0000 </r>
       <r>    5.5224    1.0000 </r>
       <r>    5.9133    1.0000 </r>
       <r>    6.5710    1.0000 </r>
       <r>    6.7435    1.0000 </r>
       <r>    7.1499    1.0000 </r>
       <r>    7.7446    1.0000 </r>
       <r>    8.1260    1.0000 </r>
       <r>    8.4702    1.0000 </r>
       <r>    8.8963    1.0000 </r>
       <r>    8.9551    1.0000 </r>
       <r>    9.5848    1.0000 </r>
       <r>    9.8267    1.0000 </r>
       <r>   10.3099    1.0000 </r>
       <r>   10.4898    1.0000 </r>
       <r>   10.4981    1.0000 </r>
       <r>   11.0613    1.0000 </r>
       <r>   11.3110    1.0000 </r>
       <r>   12.0327    1.0026 </r>
       <r>   12.2847    1.0295 </r>
       <r>   12.6101    0.0902 </r>
       <r>   18.7363    0.0000 </r>
       <r>   20.0254    0.0000 </r>
       <r>   21.1099    0.0000 </r>
       <r>   22.6171    0.0000 </r>
       <r>   23.2094    0.0000 </r>
       <r>   24.3904    0.0000 </r>
       <r>   26.0070    0.0000 </r>
       <r>   27.1653    0.0000 </r>
      </set>
      <set comment="kpoint 22">
       <r>    4.2548    1.0000 </r>
       <r>    5.1722    1.0000 </r>
       <r>    5.8608    1.0000 </r>
       <r>    6.2532    1.0000 </r>
       <r>    6.5236    1.0000 </r>
       <r>    6.8715    1.0000 </r>
       <r>    6.9040    1.0000 </r>
       <r>    7.2852    1.0000 </r>
       <r>    7.7924    1.0000 </r>
       <r>    8.1803    1.0000 </r>
       <r>    8.9169    1.0000 </r>
       <r>    9.0116    1.0000 </r>
       <r>    9.6151    1.0000 </r>
       <r>    9.9187    1.0000 </r>
       <r>    9.9791    1.0000 </r>
       <r>   10.3759    1.0000 </r>
       <r>   10.7816    1.0000 </r>
       <r>   11.3324    1.0000 </r>
       <r>   11.4071    1.0000 </r>
       <r>   11.5435    1.0000 </r>
       <r>   12.2298    1.0341 </r>
       <r>   13.3535   -0.0000 </r>
       <r>   18.7758    0.0000 </r>
       <r>   20.0942    0.0000 </r>
       <r>   20.9950    0.0000 </r>
       <r>   22.1709    0.0000 </r>
       <r>   23.1053    0.0000 </r>
       <r>   25.0595    0.0000 </r>
       <r>   25.9675    0.0000 </r>
       <r>   27.6482    0.0000 </r>
      </set>
      <set comment="kpoint 23">
       <r>    4.2148    1.0000 </r>
       <r>    5.1870    1.0000 </r>
       <r>    5.5441    1.0000 </r>
       <r>    5.9222    1.0000 </r>
       <r>    6.5915    1.0000 </r>
       <r>    6.7433    1.0000 </r>
       <r>    7.1338    1.0000 </r>
       <r>    7.7373    1.0000 </r>
       <r>    8.2516    1.0000 </r>
       <r>    8.4549    1.0000 </r>
       <r>    8.8443    1.0000 </r>
       <r>    8.9410    1.0000 </r>
       <r>    9.5935    1.0000 </r>
       <r>    9.8463    1.0000 </r>
       <r>   10.3257    1.0000 </r>
       <r>   10.4058    1.0000 </r>
       <r>   10.5198    1.0000 </r>
       <r>   11.0664    1.0000 </r>
       <r>   11.3714    1.0000 </r>
       <r>   11.9275    1.0002 </r>
       <r>   12.2111    1.0311 </r>
       <r>   12.5315    0.3463 </r>
       <r>   18.7794    0.0000 </r>
       <r>   20.0640    0.0000 </r>
       <r>   21.0253    0.0000 </r>
       <r>   22.5954    0.0000 </r>
       <r>   23.0713    0.0000 </r>
       <r>   24.5837    0.0000 </r>
       <r>   26.2284    0.0000 </r>
       <r>   27.2137    0.0000 </r>
      </set>
      <set comment="kpoint 24">
       <r>    3.7998    1.0000 </r>
       <r>    5.3722    1.0000 </r>
       <r>    5.6856    1.0000 </r>
       <r>    5.9379    1.0000 </r>
       <r>    6.5903    1.0000 </r>
       <r>    6.8090    1.0000 </r>
       <r>    7.0189    1.0000 </r>
       <r>    7.4856    1.0000 </r>
       <r>    7.8149    1.0000 </r>
       <r>    8.2046    1.0000 </r>
       <r>    8.9326    1.0000 </r>
       <r>    9.0302    1.0000 </r>
       <r>    9.5494    1.0000 </r>
       <r>    9.8722    1.0000 </r>
       <r>    9.9397    1.0000 </r>
       <r>   10.2900    1.0000 </r>
       <r>   11.0275    1.0000 </r>
       <r>   11.1127    1.0000 </r>
       <r>   11.5188    1.0000 </r>
       <r>   11.8369    1.0000 </r>
       <r>   12.6510    0.0147 </r>
       <r>   13.9294   -0.0000 </r>
       <r>   18.4802    0.0000 </r>
       <r>   20.1098    0.0000 </r>
       <r>   21.1228    0.0000 </r>
       <r>   22.1143    0.0000 </r>
       <r>   23.2426    0.0000 </r>
       <r>   24.6113    0.0000 </r>
       <r>   25.7254    0.0000 </r>
       <r>   28.2438    0.0000 </r>
      </set>
      <set comment="kpoint 25">
       <r>    4.2306    1.0000 </r>
       <r>    5.1556    1.0000 </r>
       <r>    5.8603    1.0000 </r>
       <r>    6.2628    1.0000 </r>
       <r>    6.5597    1.0000 </r>
       <r>    6.8627    1.0000 </r>
       <r>    6.8812    1.0000 </r>
       <r>    7.2884    1.0000 </r>
       <r>    7.7940    1.0000 </r>
       <r>    8.1610    1.0000 </r>
       <r>    8.8279    1.0000 </r>
       <r>    9.0065    1.0000 </r>
       <r>    9.6057    1.0000 </r>
       <r>    9.8277    1.0000 </r>
       <r>   10.0585    1.0000 </r>
       <r>   10.4238    1.0000 </r>
       <r>   10.5643    1.0000 </r>
       <r>   11.1964    1.0000 </r>
       <r>   11.6622    1.0000 </r>
       <r>   11.6921    1.0000 </r>
       <r>   12.3181    1.0082 </r>
       <r>   13.4524   -0.0000 </r>
       <r>   18.6401    0.0000 </r>
       <r>   19.9688    0.0000 </r>
       <r>   21.2331    0.0000 </r>
       <r>   22.1793    0.0000 </r>
       <r>   23.3864    0.0000 </r>
       <r>   24.9414    0.0000 </r>
       <r>   25.6726    0.0000 </r>
       <r>   27.5191    0.0000 </r>
      </set>
      <set comment="kpoint 26">
       <r>    3.7270    1.0000 </r>
       <r>    5.2693    1.0000 </r>
       <r>    5.9890    1.0000 </r>
       <r>    6.0171    1.0000 </r>
       <r>    6.2520    1.0000 </r>
       <r>    6.3839    1.0000 </r>
       <r>    6.7212    1.0000 </r>
       <r>    7.7404    1.0000 </r>
       <r>    8.3843    1.0000 </r>
       <r>    8.6529    1.0000 </r>
       <r>    8.9585    1.0000 </r>
       <r>    8.9749    1.0000 </r>
       <r>    9.2401    1.0000 </r>
       <r>    9.7081    1.0000 </r>
       <r>   10.2760    1.0000 </r>
       <r>   10.7816    1.0000 </r>
       <r>   10.9339    1.0000 </r>
       <r>   11.5791    1.0000 </r>
       <r>   11.8148    1.0000 </r>
       <r>   11.8428    1.0000 </r>
       <r>   12.5048    0.4568 </r>
       <r>   14.0329   -0.0000 </r>
       <r>   15.7632   -0.0000 </r>
       <r>   19.3254    0.0000 </r>
       <r>   20.7168    0.0000 </r>
       <r>   23.2049    0.0000 </r>
       <r>   25.4254    0.0000 </r>
       <r>   25.6226    0.0000 </r>
       <r>   26.2044    0.0000 </r>
       <r>   26.7759    0.0000 </r>
      </set>
      <set comment="kpoint 27">
       <r>    3.7214    1.0000 </r>
       <r>    5.3383    1.0000 </r>
       <r>    5.9665    1.0000 </r>
       <r>    5.9898    1.0000 </r>
       <r>    6.2348    1.0000 </r>
       <r>    6.5193    1.0000 </r>
       <r>    6.7341    1.0000 </r>
       <r>    7.6801    1.0000 </r>
       <r>    8.2037    1.0000 </r>
       <r>    8.6874    1.0000 </r>
       <r>    8.9659    1.0000 </r>
       <r>    8.9936    1.0000 </r>
       <r>    9.2318    1.0000 </r>
       <r>    9.6703    1.0000 </r>
       <r>   10.4883    1.0000 </r>
       <r>   10.7525    1.0000 </r>
       <r>   10.8779    1.0000 </r>
       <r>   11.4000    1.0000 </r>
       <r>   11.5664    1.0000 </r>
       <r>   11.9741    1.0007 </r>
       <r>   12.5096    0.4366 </r>
       <r>   13.9920   -0.0000 </r>
       <r>   16.4030   -0.0000 </r>
       <r>   19.2212    0.0000 </r>
       <r>   20.5327    0.0000 </r>
       <r>   23.2347    0.0000 </r>
       <r>   25.1117    0.0000 </r>
       <r>   25.4375    0.0000 </r>
       <r>   26.1478    0.0000 </r>
       <r>   26.6724    0.0000 </r>
      </set>
      <set comment="kpoint 28">
       <r>    3.7174    1.0000 </r>
       <r>    5.3119    1.0000 </r>
       <r>    5.9835    1.0000 </r>
       <r>    6.0379    1.0000 </r>
       <r>    6.2164    1.0000 </r>
       <r>    6.5990    1.0000 </r>
       <r>    6.7239    1.0000 </r>
       <r>    7.4831    1.0000 </r>
       <r>    8.0373    1.0000 </r>
       <r>    8.8471    1.0000 </r>
       <r>    8.9927    1.0000 </r>
       <r>    9.0968    1.0000 </r>
       <r>    9.1690    1.0000 </r>
       <r>    9.7068    1.0000 </r>
       <r>   10.1477    1.0000 </r>
       <r>   10.6240    1.0000 </r>
       <r>   11.0323    1.0000 </r>
       <r>   11.6201    1.0000 </r>
       <r>   11.9198    1.0002 </r>
       <r>   12.0197    1.0020 </r>
       <r>   12.5857    0.1551 </r>
       <r>   14.5079   -0.0000 </r>
       <r>   15.1653   -0.0000 </r>
       <r>   19.4097    0.0000 </r>
       <r>   20.6724    0.0000 </r>
       <r>   22.9818    0.0000 </r>
       <r>   25.1908    0.0000 </r>
       <r>   26.0096    0.0000 </r>
       <r>   26.2328    0.0000 </r>
       <r>   26.7805    0.0000 </r>
      </set>
      <set comment="kpoint 29">
       <r>    4.5885    1.0000 </r>
       <r>    5.8078    1.0000 </r>
       <r>    6.2221    1.0000 </r>
       <r>    6.4033    1.0000 </r>
       <r>    6.6817    1.0000 </r>
       <r>    7.0177    1.0000 </r>
       <r>    7.1097    1.0000 </r>
       <r>    7.3879    1.0000 </r>
       <r>    7.4490    1.0000 </r>
       <r>    8.1166    1.0000 </r>
       <r>    8.3287    1.0000 </r>
       <r>    8.5771    1.0000 </r>
       <r>    9.5958    1.0000 </r>
       <r>    9.6819    1.0000 </r>
       <r>    9.8308    1.0000 </r>
       <r>   10.3175    1.0000 </r>
       <r>   10.4020    1.0000 </r>
       <r>   11.3741    1.0000 </r>
       <r>   11.4412    1.0000 </r>
       <r>   12.3201    1.0063 </r>
       <r>   12.4579    0.6520 </r>
       <r>   13.2642   -0.0000 </r>
       <r>   16.2335   -0.0000 </r>
       <r>   17.9441   -0.0000 </r>
       <r>   22.7473    0.0000 </r>
       <r>   22.7532    0.0000 </r>
       <r>   24.8927    0.0000 </r>
       <r>   25.3508    0.0000 </r>
       <r>   26.8207    0.0000 </r>
       <r>   27.9606    0.0000 </r>
      </set>
      <set comment="kpoint 30">
       <r>    4.7113    1.0000 </r>
       <r>    5.6996    1.0000 </r>
       <r>    5.9879    1.0000 </r>
       <r>    6.3074    1.0000 </r>
       <r>    6.5429    1.0000 </r>
       <r>    6.8661    1.0000 </r>
       <r>    7.2822    1.0000 </r>
       <r>    7.6274    1.0000 </r>
       <r>    7.6410    1.0000 </r>
       <r>    8.3173    1.0000 </r>
       <r>    8.4148    1.0000 </r>
       <r>    8.6637    1.0000 </r>
       <r>    9.6098    1.0000 </r>
       <r>    9.6605    1.0000 </r>
       <r>   10.0825    1.0000 </r>
       <r>   10.1727    1.0000 </r>
       <r>   10.2886    1.0000 </r>
       <r>   10.9562    1.0000 </r>
       <r>   11.9722    1.0007 </r>
       <r>   12.0207    1.0020 </r>
       <r>   12.0566    1.0041 </r>
       <r>   13.0489   -0.0003 </r>
       <r>   17.0184   -0.0000 </r>
       <r>   17.9889    0.0000 </r>
       <r>   22.3940    0.0000 </r>
       <r>   22.9966    0.0000 </r>
       <r>   24.3948    0.0000 </r>
       <r>   24.6988    0.0000 </r>
       <r>   26.5660    0.0000 </r>
       <r>   27.6888    0.0000 </r>
      </set>
      <set comment="kpoint 31">
       <r>    4.8144    1.0000 </r>
       <r>    5.7561    1.0000 </r>
       <r>    6.2844    1.0000 </r>
       <r>    6.4554    1.0000 </r>
       <r>    6.7076    1.0000 </r>
       <r>    6.9944    1.0000 </r>
       <r>    7.0261    1.0000 </r>
       <r>    7.1768    1.0000 </r>
       <r>    7.4151    1.0000 </r>
       <r>    8.3434    1.0000 </r>
       <r>    8.3981    1.0000 </r>
       <r>    8.6817    1.0000 </r>
       <r>    9.6367    1.0000 </r>
       <r>    9.7055    1.0000 </r>
       <r>    9.8411    1.0000 </r>
       <r>   10.2637    1.0000 </r>
       <r>   10.6999    1.0000 </r>
       <r>   11.0443    1.0000 </r>
       <r>   11.3053    1.0000 </r>
       <r>   12.1141    1.0108 </r>
       <r>   12.2191    1.0326 </r>
       <r>   13.0958   -0.0001 </r>
       <r>   16.5452   -0.0000 </r>
       <r>   17.9058   -0.0000 </r>
       <r>   22.4365    0.0000 </r>
       <r>   22.7022    0.0000 </r>
       <r>   24.7106    0.0000 </r>
       <r>   25.4380    0.0000 </r>
       <r>   26.7029    0.0000 </r>
       <r>   28.2593    0.0000 </r>
      </set>
      <set comment="kpoint 32">
       <r>    4.8417    1.0000 </r>
       <r>    5.7120    1.0000 </r>
       <r>    6.0892    1.0000 </r>
       <r>    6.3459    1.0000 </r>
       <r>    6.5023    1.0000 </r>
       <r>    6.9364    1.0000 </r>
       <r>    7.3004    1.0000 </r>
       <r>    7.5940    1.0000 </r>
       <r>    7.7431    1.0000 </r>
       <r>    8.2678    1.0000 </r>
       <r>    8.3034    1.0000 </r>
       <r>    8.6314    1.0000 </r>
       <r>    9.6465    1.0000 </r>
       <r>    9.6911    1.0000 </r>
       <r>    9.9523    1.0000 </r>
       <r>   10.2482    1.0000 </r>
       <r>   10.3934    1.0000 </r>
       <r>   11.0097    1.0000 </r>
       <r>   11.7295    1.0000 </r>
       <r>   11.7868    1.0000 </r>
       <r>   12.0264    1.0023 </r>
       <r>   12.9699   -0.0020 </r>
       <r>   16.7319   -0.0000 </r>
       <r>   17.9228   -0.0000 </r>
       <r>   22.5088    0.0000 </r>
       <r>   23.1025    0.0000 </r>
       <r>   24.5562    0.0000 </r>
       <r>   24.9861    0.0000 </r>
       <r>   26.8374    0.0000 </r>
       <r>   28.1956    0.0000 </r>
      </set>
      <set comment="kpoint 33">
       <r>    4.5641    1.0000 </r>
       <r>    5.9225    1.0000 </r>
       <r>    6.1171    1.0000 </r>
       <r>    6.3268    1.0000 </r>
       <r>    6.5888    1.0000 </r>
       <r>    6.8738    1.0000 </r>
       <r>    7.0933    1.0000 </r>
       <r>    7.3592    1.0000 </r>
       <r>    7.5506    1.0000 </r>
       <r>    8.3585    1.0000 </r>
       <r>    8.4091    1.0000 </r>
       <r>    8.6964    1.0000 </r>
       <r>    9.5843    1.0000 </r>
       <r>    9.6818    1.0000 </r>
       <r>    9.7845    1.0000 </r>
       <r>   10.3528    1.0000 </r>
       <r>   10.8634    1.0000 </r>
       <r>   10.8887    1.0000 </r>
       <r>   11.4282    1.0000 </r>
       <r>   12.3393    0.9837 </r>
       <r>   12.3942    0.8710 </r>
       <r>   13.3849   -0.0000 </r>
       <r>   16.0373   -0.0000 </r>
       <r>   17.9557    0.0000 </r>
       <r>   22.6513    0.0000 </r>
       <r>   22.7155    0.0000 </r>
       <r>   24.7891    0.0000 </r>
       <r>   25.2338    0.0000 </r>
       <r>   26.9466    0.0000 </r>
       <r>   28.0378    0.0000 </r>
      </set>
      <set comment="kpoint 34">
       <r>    4.7243    1.0000 </r>
       <r>    5.6325    1.0000 </r>
       <r>    6.3111    1.0000 </r>
       <r>    6.5027    1.0000 </r>
       <r>    6.7354    1.0000 </r>
       <r>    7.0305    1.0000 </r>
       <r>    7.1148    1.0000 </r>
       <r>    7.2372    1.0000 </r>
       <r>    7.2716    1.0000 </r>
       <r>    8.1237    1.0000 </r>
       <r>    8.3577    1.0000 </r>
       <r>    8.6331    1.0000 </r>
       <r>    9.6111    1.0000 </r>
       <r>    9.6668    1.0000 </r>
       <r>    9.9831    1.0000 </r>
       <r>   10.2089    1.0000 </r>
       <r>   10.2546    1.0000 </r>
       <r>   11.1974    1.0000 </r>
       <r>   11.7588    1.0000 </r>
       <r>   12.1491    1.0174 </r>
       <r>   12.4227    0.7832 </r>
       <r>   13.1159   -0.0001 </r>
       <r>   16.9921   -0.0000 </r>
       <r>   17.9438   -0.0000 </r>
       <r>   22.4437    0.0000 </r>
       <r>   22.6458    0.0000 </r>
       <r>   24.6040    0.0000 </r>
       <r>   25.1510    0.0000 </r>
       <r>   26.3742    0.0000 </r>
       <r>   27.8387    0.0000 </r>
      </set>
      <set comment="kpoint 35">
       <r>    5.5280    1.0000 </r>
       <r>    6.0640    1.0000 </r>
       <r>    6.4765    1.0000 </r>
       <r>    6.8751    1.0000 </r>
       <r>    6.9082    1.0000 </r>
       <r>    7.1375    1.0000 </r>
       <r>    7.1956    1.0000 </r>
       <r>    7.4380    1.0000 </r>
       <r>    7.4479    1.0000 </r>
       <r>    7.9157    1.0000 </r>
       <r>    8.1258    1.0000 </r>
       <r>    8.5548    1.0000 </r>
       <r>    9.3654    1.0000 </r>
       <r>    9.5662    1.0000 </r>
       <r>    9.7507    1.0000 </r>
       <r>    9.8121    1.0000 </r>
       <r>   10.1459    1.0000 </r>
       <r>   10.8879    1.0000 </r>
       <r>   11.2491    1.0000 </r>
       <r>   11.4379    1.0000 </r>
       <r>   12.6334    0.0421 </r>
       <r>   13.7271   -0.0000 </r>
       <r>   15.5318   -0.0000 </r>
       <r>   16.5476   -0.0000 </r>
       <r>   23.4409    0.0000 </r>
       <r>   24.3853    0.0000 </r>
       <r>   25.3867    0.0000 </r>
       <r>   26.0724    0.0000 </r>
       <r>   26.2133    0.0000 </r>
       <r>   26.8215    0.0000 </r>
      </set>
      <set comment="kpoint 36">
       <r>    5.3002    1.0000 </r>
       <r>    5.7923    1.0000 </r>
       <r>    6.3102    1.0000 </r>
       <r>    6.7616    1.0000 </r>
       <r>    7.0091    1.0000 </r>
       <r>    7.0142    1.0000 </r>
       <r>    7.2691    1.0000 </r>
       <r>    7.6001    1.0000 </r>
       <r>    7.6047    1.0000 </r>
       <r>    7.9613    1.0000 </r>
       <r>    8.2960    1.0000 </r>
       <r>    8.5030    1.0000 </r>
       <r>    9.3738    1.0000 </r>
       <r>    9.6156    1.0000 </r>
       <r>    9.6570    1.0000 </r>
       <r>    9.7400    1.0000 </r>
       <r>    9.9858    1.0000 </r>
       <r>   10.8181    1.0000 </r>
       <r>   11.6123    1.0000 </r>
       <r>   11.7889    1.0000 </r>
       <r>   12.8198   -0.0218 </r>
       <r>   13.3055   -0.0000 </r>
       <r>   16.3834   -0.0000 </r>
       <r>   16.7994   -0.0000 </r>
       <r>   22.9710    0.0000 </r>
       <r>   23.9682    0.0000 </r>
       <r>   25.0099    0.0000 </r>
       <r>   25.2219    0.0000 </r>
       <r>   26.0937    0.0000 </r>
       <r>   26.9378    0.0000 </r>
      </set>
      <set comment="kpoint 37">
       <r>    5.4261    1.0000 </r>
       <r>    6.2150    1.0000 </r>
       <r>    6.3560    1.0000 </r>
       <r>    6.6568    1.0000 </r>
       <r>    6.8794    1.0000 </r>
       <r>    6.8964    1.0000 </r>
       <r>    7.0271    1.0000 </r>
       <r>    7.3792    1.0000 </r>
       <r>    7.9053    1.0000 </r>
       <r>    8.2467    1.0000 </r>
       <r>    8.3211    1.0000 </r>
       <r>    8.6129    1.0000 </r>
       <r>    9.3083    1.0000 </r>
       <r>    9.5958    1.0000 </r>
       <r>    9.7453    1.0000 </r>
       <r>    9.8501    1.0000 </r>
       <r>   10.6301    1.0000 </r>
       <r>   10.7145    1.0000 </r>
       <r>   10.9913    1.0000 </r>
       <r>   11.0434    1.0000 </r>
       <r>   13.0448   -0.0004 </r>
       <r>   14.1722   -0.0000 </r>
       <r>   14.9372   -0.0000 </r>
       <r>   16.2408   -0.0000 </r>
       <r>   23.4054    0.0000 </r>
       <r>   24.2384    0.0000 </r>
       <r>   25.6035    0.0000 </r>
       <r>   25.9915    0.0000 </r>
       <r>   26.3598    0.0000 </r>
       <r>   26.5851    0.0000 </r>
      </set>
      <set comment="kpoint 38">
       <r>    2.4391    1.0000 </r>
       <r>    4.4114    1.0000 </r>
       <r>    5.3708    1.0000 </r>
       <r>    5.4685    1.0000 </r>
       <r>    5.6218    1.0000 </r>
       <r>    5.7431    1.0000 </r>
       <r>    5.9310    1.0000 </r>
       <r>    8.1684    1.0000 </r>
       <r>    8.7457    1.0000 </r>
       <r>    8.8606    1.0000 </r>
       <r>   10.0043    1.0000 </r>
       <r>   10.0421    1.0000 </r>
       <r>   10.1062    1.0000 </r>
       <r>   10.3959    1.0000 </r>
       <r>   10.7913    1.0000 </r>
       <r>   10.8425    1.0000 </r>
       <r>   11.5651    1.0000 </r>
       <r>   12.0491    1.0036 </r>
       <r>   12.2615    1.0349 </r>
       <r>   12.5481    0.2821 </r>
       <r>   13.5279   -0.0000 </r>
       <r>   15.3825   -0.0000 </r>
       <r>   16.1472   -0.0000 </r>
       <r>   16.5647   -0.0000 </r>
       <r>   22.7123    0.0000 </r>
       <r>   23.3017    0.0000 </r>
       <r>   23.8972    0.0000 </r>
       <r>   25.1970    0.0000 </r>
       <r>   25.5435    0.0000 </r>
       <r>   25.7635    0.0000 </r>
      </set>
      <set comment="kpoint 39">
       <r>    3.1528    1.0000 </r>
       <r>    4.9097    1.0000 </r>
       <r>    5.6355    1.0000 </r>
       <r>    5.8143    1.0000 </r>
       <r>    6.0140    1.0000 </r>
       <r>    6.1976    1.0000 </r>
       <r>    6.5688    1.0000 </r>
       <r>    7.8027    1.0000 </r>
       <r>    8.7995    1.0000 </r>
       <r>    9.0076    1.0000 </r>
       <r>    9.0572    1.0000 </r>
       <r>    9.2669    1.0000 </r>
       <r>    9.5108    1.0000 </r>
       <r>   10.0827    1.0000 </r>
       <r>   10.1100    1.0000 </r>
       <r>   10.3371    1.0000 </r>
       <r>   11.2219    1.0000 </r>
       <r>   11.6474    1.0000 </r>
       <r>   11.7981    1.0000 </r>
       <r>   12.6025    0.1089 </r>
       <r>   13.4692   -0.0000 </r>
       <r>   13.9334   -0.0000 </r>
       <r>   17.4289   -0.0000 </r>
       <r>   17.7089   -0.0000 </r>
       <r>   21.7233    0.0000 </r>
       <r>   21.8664    0.0000 </r>
       <r>   24.9631    0.0000 </r>
       <r>   24.9831    0.0000 </r>
       <r>   25.4270    0.0000 </r>
       <r>   27.5611    0.0000 </r>
      </set>
      <set comment="kpoint 40">
       <r>    3.2365    1.0000 </r>
       <r>    4.9335    1.0000 </r>
       <r>    5.5521    1.0000 </r>
       <r>    5.8141    1.0000 </r>
       <r>    6.0271    1.0000 </r>
       <r>    6.1742    1.0000 </r>
       <r>    6.6229    1.0000 </r>
       <r>    7.9590    1.0000 </r>
       <r>    8.9352    1.0000 </r>
       <r>    8.9447    1.0000 </r>
       <r>    9.1103    1.0000 </r>
       <r>    9.2835    1.0000 </r>
       <r>    9.5176    1.0000 </r>
       <r>    9.8973    1.0000 </r>
       <r>   10.3681    1.0000 </r>
       <r>   10.5915    1.0000 </r>
       <r>   11.1932    1.0000 </r>
       <r>   11.4313    1.0000 </r>
       <r>   11.6840    1.0000 </r>
       <r>   12.2819    1.0305 </r>
       <r>   13.0395   -0.0004 </r>
       <r>   13.8768   -0.0000 </r>
       <r>   17.5020   -0.0000 </r>
       <r>   17.8431   -0.0000 </r>
       <r>   21.3506    0.0000 </r>
       <r>   22.1643    0.0000 </r>
       <r>   24.9201    0.0000 </r>
       <r>   25.4109    0.0000 </r>
       <r>   25.7388    0.0000 </r>
       <r>   26.9647    0.0000 </r>
      </set>
      <set comment="kpoint 41">
       <r>    3.2428    1.0000 </r>
       <r>    4.9534    1.0000 </r>
       <r>    5.7569    1.0000 </r>
       <r>    5.8606    1.0000 </r>
       <r>    5.8865    1.0000 </r>
       <r>    6.3661    1.0000 </r>
       <r>    6.4239    1.0000 </r>
       <r>    7.7436    1.0000 </r>
       <r>    8.8071    1.0000 </r>
       <r>    9.0173    1.0000 </r>
       <r>    9.0469    1.0000 </r>
       <r>    9.2871    1.0000 </r>
       <r>    9.4971    1.0000 </r>
       <r>    9.9827    1.0000 </r>
       <r>   10.2054    1.0000 </r>
       <r>   10.4307    1.0000 </r>
       <r>   11.2056    1.0000 </r>
       <r>   11.6143    1.0000 </r>
       <r>   11.7253    1.0000 </r>
       <r>   12.3533    0.9620 </r>
       <r>   13.2643   -0.0000 </r>
       <r>   13.9246   -0.0000 </r>
       <r>   17.4837   -0.0000 </r>
       <r>   17.8021   -0.0000 </r>
       <r>   21.2317    0.0000 </r>
       <r>   22.3405    0.0000 </r>
       <r>   24.7698    0.0000 </r>
       <r>   25.3773    0.0000 </r>
       <r>   25.5795    0.0000 </r>
       <r>   27.1492    0.0000 </r>
      </set>
      <set comment="kpoint 42">
       <r>    3.9891    1.0000 </r>
       <r>    5.4860    1.0000 </r>
       <r>    5.7916    1.0000 </r>
       <r>    6.2372    1.0000 </r>
       <r>    6.4512    1.0000 </r>
       <r>    6.7239    1.0000 </r>
       <r>    7.2392    1.0000 </r>
       <r>    7.5160    1.0000 </r>
       <r>    7.8637    1.0000 </r>
       <r>    8.1118    1.0000 </r>
       <r>    8.7763    1.0000 </r>
       <r>    8.8877    1.0000 </r>
       <r>    9.3575    1.0000 </r>
       <r>    9.7998    1.0000 </r>
       <r>    9.8393    1.0000 </r>
       <r>   10.3352    1.0000 </r>
       <r>   11.0687    1.0000 </r>
       <r>   11.3235    1.0000 </r>
       <r>   11.6247    1.0000 </r>
       <r>   12.1256    1.0128 </r>
       <r>   12.4825    0.5507 </r>
       <r>   13.4767   -0.0000 </r>
       <r>   18.9672    0.0000 </r>
       <r>   19.0473    0.0000 </r>
       <r>   20.3409    0.0000 </r>
       <r>   20.6803    0.0000 </r>
       <r>   24.6982    0.0000 </r>
       <r>   25.7419    0.0000 </r>
       <r>   26.9303    0.0000 </r>
       <r>   27.5695    0.0000 </r>
      </set>
      <set comment="kpoint 43">
       <r>    4.3346    1.0000 </r>
       <r>    5.2658    1.0000 </r>
       <r>    5.7065    1.0000 </r>
       <r>    6.1762    1.0000 </r>
       <r>    6.3417    1.0000 </r>
       <r>    6.8060    1.0000 </r>
       <r>    7.4109    1.0000 </r>
       <r>    7.7593    1.0000 </r>
       <r>    7.9410    1.0000 </r>
       <r>    8.4479    1.0000 </r>
       <r>    8.7853    1.0000 </r>
       <r>    8.8743    1.0000 </r>
       <r>    9.3071    1.0000 </r>
       <r>    9.8900    1.0000 </r>
       <r>   10.0079    1.0000 </r>
       <r>   10.1433    1.0000 </r>
       <r>   10.9143    1.0000 </r>
       <r>   11.2553    1.0000 </r>
       <r>   11.5643    1.0000 </r>
       <r>   12.0771    1.0060 </r>
       <r>   12.1967    1.0281 </r>
       <r>   12.6077    0.0958 </r>
       <r>   18.9728    0.0000 </r>
       <r>   19.2488    0.0000 </r>
       <r>   20.1868    0.0000 </r>
       <r>   20.8765    0.0000 </r>
       <r>   24.7518    0.0000 </r>
       <r>   26.2624    0.0000 </r>
       <r>   26.8887    0.0000 </r>
       <r>   27.2057    0.0000 </r>
      </set>
      <set comment="kpoint 44">
       <r>    4.3718    1.0000 </r>
       <r>    5.2490    1.0000 </r>
       <r>    6.0166    1.0000 </r>
       <r>    6.3855    1.0000 </r>
       <r>    6.5700    1.0000 </r>
       <r>    6.6841    1.0000 </r>
       <r>    7.0625    1.0000 </r>
       <r>    7.3807    1.0000 </r>
       <r>    7.9133    1.0000 </r>
       <r>    8.0173    1.0000 </r>
       <r>    8.7446    1.0000 </r>
       <r>    8.9018    1.0000 </r>
       <r>    9.3872    1.0000 </r>
[...]
       <r>   12.6007    0.1134 </r>
       <r>   12.8105   -0.0240 </r>
       <r>   13.5718   -0.0000 </r>
       <r>   14.8574   -0.0000 </r>
       <r>   15.4380   -0.0000 </r>
       <r>   20.1053    0.0000 </r>
       <r>   21.0766    0.0000 </r>
       <r>   21.6655    0.0000 </r>
       <r>   23.1605    0.0000 </r>
       <r>   28.7150    0.0000 </r>
       <r>   29.2701    0.0000 </r>
      </set>
      <set comment="kpoint 62">
       <r>    4.6522    1.0000 </r>
       <r>    4.8040    1.0000 </r>
       <r>    5.0170    1.0000 </r>
       <r>    5.6101    1.0000 </r>
       <r>    7.5405    1.0000 </r>
       <r>    7.8459    1.0000 </r>
       <r>    7.9789    1.0000 </r>
       <r>    8.4451    1.0000 </r>
       <r>    8.5260    1.0000 </r>
       <r>    8.6668    1.0000 </r>
       <r>    8.8980    1.0000 </r>
       <r>    9.1724    1.0000 </r>
       <r>    9.2927    1.0000 </r>
       <r>    9.4154    1.0000 </r>
       <r>    9.5538    1.0000 </r>
       <r>    9.7475    1.0000 </r>
       <r>   11.1785    1.0000 </r>
       <r>   11.7514    1.0000 </r>
       <r>   12.2333    1.0346 </r>
       <r>   12.4429    0.7107 </r>
       <r>   12.8211   -0.0215 </r>
       <r>   13.3718   -0.0000 </r>
       <r>   15.3680   -0.0000 </r>
       <r>   15.7218   -0.0000 </r>
       <r>   19.9028    0.0000 </r>
       <r>   20.6718    0.0000 </r>
       <r>   21.6583    0.0000 </r>
       <r>   23.1442    0.0000 </r>
       <r>   28.6361    0.0000 </r>
       <r>   29.2936    0.0000 </r>
      </set>
      <set comment="kpoint 63">
       <r>    4.6544    1.0000 </r>
       <r>    4.7766    1.0000 </r>
       <r>    5.2244    1.0000 </r>
       <r>    5.4860    1.0000 </r>
       <r>    7.4824    1.0000 </r>
       <r>    7.7213    1.0000 </r>
       <r>    8.1032    1.0000 </r>
       <r>    8.5371    1.0000 </r>
       <r>    8.7087    1.0000 </r>
       <r>    8.7887    1.0000 </r>
       <r>    8.8957    1.0000 </r>
       <r>    8.9758    1.0000 </r>
       <r>    9.3402    1.0000 </r>
       <r>    9.4271    1.0000 </r>
       <r>    9.5740    1.0000 </r>
       <r>    9.7256    1.0000 </r>
       <r>   11.2296    1.0000 </r>
       <r>   11.5441    1.0000 </r>
       <r>   11.8539    1.0000 </r>
       <r>   12.7408   -0.0355 </r>
       <r>   13.0691   -0.0002 </r>
       <r>   13.9403   -0.0000 </r>
       <r>   14.3402   -0.0000 </r>
       <r>   15.3209   -0.0000 </r>
       <r>   20.0712    0.0000 </r>
       <r>   21.1378    0.0000 </r>
       <r>   21.6359    0.0000 </r>
       <r>   23.2168    0.0000 </r>
       <r>   28.5714    0.0000 </r>
       <r>   29.3202    0.0000 </r>
      </set>
      <set comment="kpoint 64">
       <r>    4.3146    1.0000 </r>
       <r>    4.5636    1.0000 </r>
       <r>    4.7463    1.0000 </r>
       <r>    5.1621    1.0000 </r>
       <r>    7.7989    1.0000 </r>
       <r>    7.9735    1.0000 </r>
       <r>    8.1306    1.0000 </r>
       <r>    8.2943    1.0000 </r>
       <r>    8.3858    1.0000 </r>
       <r>    8.7263    1.0000 </r>
       <r>    8.7703    1.0000 </r>
       <r>    8.9455    1.0000 </r>
       <r>   10.3269    1.0000 </r>
       <r>   10.4271    1.0000 </r>
       <r>   10.6367    1.0000 </r>
       <r>   11.1398    1.0000 </r>
       <r>   11.3275    1.0000 </r>
       <r>   11.8858    1.0001 </r>
       <r>   11.9790    1.0008 </r>
       <r>   12.5820    0.1663 </r>
       <r>   13.2448   -0.0000 </r>
       <r>   13.3574   -0.0000 </r>
       <r>   13.9336   -0.0000 </r>
       <r>   14.1436   -0.0000 </r>
       <r>   19.7772    0.0000 </r>
       <r>   20.0048    0.0000 </r>
       <r>   20.6355    0.0000 </r>
       <r>   22.1771    0.0000 </r>
       <r>   28.6732    0.0000 </r>
       <r>   28.8058    0.0000 </r>
      </set>
     </set>
    </set>
   </array>
  </eigenvalues>
  <separator name="orbital magnetization" >
   <v name="MAGDIPOLOUT">      0.00000000      0.00000000      0.00000000</v>
  </separator>
  <dos>
   <i name="efermi">     12.49452771 </i>
   <total>
    <array>
     <dimension dim="1">gridpoints</dimension>
     <dimension dim="2">spin</dimension>
     <field>energy</field>
     <field>total</field>
     <field>integrated</field>
     <set>
      <set comment="spin 1">
       <r>    -0.4441     0.0000     0.0000 </r>
       <r>    -0.3382     0.0000     0.0000 </r>
       <r>    -0.2323     0.0000     0.0000 </r>
       <r>    -0.1264    -0.0000    -0.0000 </r>
       <r>    -0.0206    -0.0000    -0.0000 </r>
       <r>     0.0853    -0.0000    -0.0000 </r>
       <r>     0.1912    -0.0000    -0.0000 </r>
       <r>     0.2971    -0.0000    -0.0000 </r>
       <r>     0.4030    -0.0000    -0.0000 </r>
       <r>     0.5088    -0.0000    -0.0000 </r>
       <r>     0.6147    -0.0000    -0.0000 </r>
       <r>     0.7206    -0.0000    -0.0000 </r>
       <r>     0.8265    -0.0000    -0.0000 </r>
       <r>     0.9324    -0.0000    -0.0000 </r>
       <r>     1.0382    -0.0000    -0.0000 </r>
       <r>     1.1441    -0.0003    -0.0000 </r>
       <r>     1.2500    -0.0011    -0.0002 </r>
       <r>     1.3559    -0.0002    -0.0002 </r>
       <r>     1.4618     0.0072     0.0006 </r>
       <r>     1.5677     0.0155     0.0022 </r>
       <r>     1.6735     0.0224     0.0046 </r>
       <r>     1.7794     0.0639     0.0113 </r>
       <r>     1.8853     0.1201     0.0241 </r>
       <r>     1.9912     0.1324     0.0381 </r>
       <r>     2.0971     0.1879     0.0580 </r>
       <r>     2.2029     0.2691     0.0865 </r>
       <r>     2.3088     0.2331     0.1112 </r>
       <r>     2.4147     0.1879     0.1311 </r>
       <r>     2.5206     0.1784     0.1499 </r>
       <r>     2.6265     0.1207     0.1627 </r>
       <r>     2.7323     0.0960     0.1729 </r>
       <r>     2.8382     0.1897     0.1930 </r>
       <r>     2.9441     0.3903     0.2343 </r>
       <r>     3.0500     0.5902     0.2968 </r>
       <r>     3.1559     0.6787     0.3686 </r>
       <r>     3.2618     0.6055     0.4328 </r>
       <r>     3.3676     0.3361     0.4683 </r>
       <r>     3.4735     0.0608     0.4748 </r>
       <r>     3.5794     0.0347     0.4785 </r>
       <r>     3.6853     0.3745     0.5181 </r>
       <r>     3.7912     0.8901     0.6124 </r>
       <r>     3.8970     1.0294     0.7213 </r>
       <r>     4.0029     0.7922     0.8052 </r>
       <r>     4.1088     0.7143     0.8808 </r>
       <r>     4.2147     0.9198     0.9782 </r>
       <r>     4.3206     1.1263     1.0975 </r>
       <r>     4.4264     1.2635     1.2313 </r>
       <r>     4.5323     1.6982     1.4111 </r>
       <r>     4.6382     2.5488     1.6809 </r>
       <r>     4.7441     3.0797     2.0070 </r>
       <r>     4.8500     2.6366     2.2862 </r>
       <r>     4.9558     1.9416     2.4918 </r>
       <r>     5.0617     1.9863     2.7021 </r>
       <r>     5.1676     2.7657     2.9949 </r>
       <r>     5.2735     3.8507     3.4026 </r>
       <r>     5.3794     4.8427     3.9154 </r>
       <r>     5.4853     5.4239     4.4897 </r>
       <r>     5.5911     5.2157     5.0419 </r>
       <r>     5.6970     4.7592     5.5458 </r>
       <r>     5.8029     5.1315     6.0892 </r>
       <r>     5.9088     5.8472     6.7083 </r>
       <r>     6.0147     5.7740     7.3196 </r>
       <r>     6.1205     5.1261     7.8624 </r>
       <r>     6.2264     4.7003     8.3601 </r>
       <r>     6.3323     4.6206     8.8493 </r>
       <r>     6.4382     4.5519     9.3312 </r>
       <r>     6.5441     4.2169     9.7777 </r>
       <r>     6.6499     3.9449    10.1954 </r>
       <r>     6.7558     3.9095    10.6094 </r>
       <r>     6.8617     3.6722    10.9982 </r>
       <r>     6.9676     3.6299    11.3825 </r>
       <r>     7.0735     4.0260    11.8088 </r>
       <r>     7.1794     3.9445    12.2264 </r>
       <r>     7.2852     3.4146    12.5880 </r>
       <r>     7.3911     3.2574    12.9329 </r>
       <r>     7.4970     3.5181    13.3054 </r>
       <r>     7.6029     3.9602    13.7247 </r>
       <r>     7.7088     4.8268    14.2358 </r>
       <r>     7.8146     5.9401    14.8647 </r>
       <r>     7.9205     6.4158    15.5440 </r>
       <r>     8.0264     5.9374    16.1727 </r>
       <r>     8.1323     5.0851    16.7111 </r>
       <r>     8.2382     4.7151    17.2103 </r>
       <r>     8.3440     4.7699    17.7154 </r>
       <r>     8.4499     4.7573    18.2191 </r>
       <r>     8.5558     5.1259    18.7618 </r>
       <r>     8.6617     6.3737    19.4367 </r>
       <r>     8.7676     8.0770    20.2919 </r>
       <r>     8.8734     9.4464    21.2921 </r>
       <r>     8.9793     9.7556    22.3250 </r>
       <r>     9.0852     8.4904    23.2240 </r>
       <r>     9.1911     6.5753    23.9202 </r>
       <r>     9.2970     5.4518    24.4974 </r>
       <r>     9.4029     5.4636    25.0759 </r>
       <r>     9.5087     6.7588    25.7915 </r>
       <r>     9.6146     8.1834    26.6580 </r>
       <r>     9.7205     7.9133    27.4959 </r>
       <r>     9.8264     6.6094    28.1957 </r>
       <r>     9.9323     5.5578    28.7842 </r>
       <r>    10.0381     4.6873    29.2805 </r>
       <r>    10.1440     3.9874    29.7026 </r>
       <r>    10.2499     3.9207    30.1178 </r>
       <r>    10.3558     4.3423    30.5775 </r>
       <r>    10.4617     4.3601    31.0392 </r>
       <r>    10.5675     3.5892    31.4192 </r>
       <r>    10.6734     2.7685    31.7124 </r>
       <r>    10.7793     2.7586    32.0045 </r>
       <r>    10.8852     3.2000    32.3433 </r>
       <r>    10.9911     3.5840    32.7227 </r>
       <r>    11.0970     4.5182    33.2011 </r>
       <r>    11.2028     5.9153    33.8274 </r>
       <r>    11.3087     6.3999    34.5051 </r>
       <r>    11.4146     5.4143    35.0783 </r>
       <r>    11.5205     4.4388    35.5483 </r>
       <r>    11.6264     4.7030    36.0463 </r>
       <r>    11.7322     5.1000    36.5863 </r>
       <r>    11.8381     4.8637    37.1013 </r>
       <r>    11.9440     4.8168    37.6113 </r>
       <r>    12.0499     5.0685    38.1479 </r>
       <r>    12.1558     5.0408    38.6816 </r>
       <r>    12.2616     4.6300    39.1719 </r>
       <r>    12.3675     3.9005    39.5849 </r>
       <r>    12.4734     3.2825    39.9324 </r>
       <r>    12.5793     3.2754    40.2792 </r>
       <r>    12.6852     3.2647    40.6249 </r>
       <r>    12.7910     2.6653    40.9071 </r>
       <r>    12.8969     2.2279    41.1430 </r>
       <r>    13.0028     2.5930    41.4175 </r>
       <r>    13.1087     2.9318    41.7280 </r>
       <r>    13.2146     2.7899    42.0234 </r>
       <r>    13.3205     2.9797    42.3388 </r>
       <r>    13.4263     3.2234    42.6801 </r>
       <r>    13.5322     2.5446    42.9496 </r>
       <r>    13.6381     1.3128    43.0886 </r>
       <r>    13.7440     0.6077    43.1529 </r>
       <r>    13.8499     0.9172    43.2500 </r>
       <r>    13.9557     1.6110    43.4206 </r>
       <r>    14.0616     1.5555    43.5853 </r>
       <r>    14.1675     0.8991    43.6805 </r>
       <r>    14.2734     0.4380    43.7269 </r>
       <r>    14.3793     0.3999    43.7692 </r>
       <r>    14.4851     0.6143    43.8343 </r>
       <r>    14.5910     0.6624    43.9044 </r>
       <r>    14.6969     0.5619    43.9639 </r>
       <r>    14.8028     0.7156    44.0397 </r>
       <r>    14.9087     0.7862    44.1229 </r>
       <r>    15.0146     0.4307    44.1685 </r>
       <r>    15.1204     0.1872    44.1883 </r>
       <r>    15.2263     0.4516    44.2361 </r>
       <r>    15.3322     0.9896    44.3409 </r>
       <r>    15.4381     1.2226    44.4704 </r>
       <r>    15.5440     0.8578    44.5612 </r>
       <r>    15.6498     0.4248    44.6062 </r>
       <r>    15.7557     0.3490    44.6431 </r>
       <r>    15.8616     0.4206    44.6876 </r>
       <r>    15.9675     0.5403    44.7449 </r>
       <r>    16.0734     0.7797    44.8274 </r>
       <r>    16.1792     1.0373    44.9372 </r>
       <r>    16.2851     1.4347    45.0891 </r>
       <r>    16.3910     1.9361    45.2941 </r>
       <r>    16.4969     1.9648    45.5022 </r>
       <r>    16.6028     1.6040    45.6720 </r>
       <r>    16.7086     1.2427    45.8036 </r>
       <r>    16.8145     0.8284    45.8913 </r>
       <r>    16.9204     0.6029    45.9551 </r>
       <r>    17.0263     0.7339    46.0329 </r>
       <r>    17.1322     0.8020    46.1178 </r>
       <r>    17.2381     0.6318    46.1847 </r>
       <r>    17.3439     0.5401    46.2419 </r>
       <r>    17.4498     0.5873    46.3040 </r>
       <r>    17.5557     0.5111    46.3582 </r>
       <r>    17.6616     0.4344    46.4042 </r>
       <r>    17.7675     0.8620    46.4954 </r>
       <r>    17.8733     1.5480    46.6593 </r>
       <r>    17.9792     1.6341    46.8324 </r>
       <r>    18.0851     0.9733    46.9354 </r>
       <r>    18.1910     0.2985    46.9670 </r>
       <r>    18.2969     0.1725    46.9853 </r>
       <r>    18.4027     0.4557    47.0335 </r>
       <r>    18.5086     0.7248    47.1103 </r>
       <r>    18.6145     0.7212    47.1866 </r>
       <r>    18.7204     0.5119    47.2408 </r>
       <r>    18.8263     0.4098    47.2842 </r>
       <r>    18.9322     0.7432    47.3629 </r>
       <r>    19.0380     1.2780    47.4982 </r>
       <r>    19.1439     1.2855    47.6343 </r>
       <r>    19.2498     0.8040    47.7194 </r>
       <r>    19.3557     0.4054    47.7624 </r>
       <r>    19.4616     0.2637    47.7903 </r>
       <r>    19.5674     0.3305    47.8253 </r>
       <r>    19.6733     0.4657    47.8746 </r>
       <r>    19.7792     0.6017    47.9383 </r>
       <r>    19.8851     0.8758    48.0310 </r>
       <r>    19.9910     1.4479    48.1843 </r>
       <r>    20.0968     1.9895    48.3950 </r>
       <r>    20.2027     1.8608    48.5920 </r>
       <r>    20.3086     1.2883    48.7284 </r>
       <r>    20.4145     1.0322    48.8377 </r>
       <r>    20.5204     1.2358    48.9686 </r>
       <r>    20.6262     1.4157    49.1185 </r>
       <r>    20.7321     1.2103    49.2466 </r>
       <r>    20.8380     0.9454    49.3467 </r>
       <r>    20.9439     1.0289    49.4556 </r>
       <r>    21.0498     1.3605    49.5997 </r>
       <r>    21.1557     1.5959    49.7687 </r>
       <r>    21.2615     1.3898    49.9158 </r>
       <r>    21.3674     0.7907    49.9995 </r>
       <r>    21.4733     0.4206    50.0441 </r>
       <r>    21.5792     0.7526    50.1238 </r>
       <r>    21.6851     1.3278    50.2644 </r>
       <r>    21.7909     1.4793    50.4210 </r>
       <r>    21.8968     1.2059    50.5487 </r>
       <r>    22.0027     0.8828    50.6421 </r>
       <r>    22.1086     0.9428    50.7420 </r>
       <r>    22.2145     1.1660    50.8654 </r>
       <r>    22.3203     1.0461    50.9762 </r>
       <r>    22.4262     0.7780    51.0585 </r>
       <r>    22.5321     0.7108    51.1338 </r>
       <r>    22.6380     0.9300    51.2323 </r>
       <r>    22.7439     1.1731    51.3565 </r>
       <r>    22.8498     1.2491    51.4887 </r>
       <r>    22.9556     1.5345    51.6512 </r>
       <r>    23.0615     2.0854    51.8720 </r>
       <r>    23.1674     2.4913    52.1358 </r>
       <r>    23.2733     2.3144    52.3809 </r>
       <r>    23.3792     1.5915    52.5494 </r>
       <r>    23.4850     1.0275    52.6582 </r>
       <r>    23.5909     0.9076    52.7543 </r>
       <r>    23.6968     0.7987    52.8388 </r>
       <r>    23.8027     0.5695    52.8991 </r>
       <r>    23.9086     0.5697    52.9594 </r>
       <r>    24.0144     0.6775    53.0312 </r>
       <r>    24.1203     0.5989    53.0946 </r>
       <r>    24.2262     0.4831    53.1457 </r>
       <r>    24.3321     0.5508    53.2041 </r>
       <r>    24.4380     0.8951    53.2988 </r>
       <r>    24.5439     1.6262    53.4710 </r>
       <r>    24.6497     2.5037    53.7361 </r>
       <r>    24.7556     2.8276    54.0355 </r>
       <r>    24.8615     2.7363    54.3252 </r>
       <r>    24.9674     2.7622    54.6177 </r>
       <r>    25.0733     2.4608    54.8782 </r>
       <r>    25.1791     1.7417    55.0627 </r>
       <r>    25.2850     1.3184    55.2023 </r>
       <r>    25.3909     1.4009    55.3506 </r>
       <r>    25.4968     1.6206    55.5222 </r>
       <r>    25.6027     1.9664    55.7304 </r>
       <r>    25.7085     2.4360    55.9883 </r>
       <r>    25.8144     2.2924    56.2310 </r>
       <r>    25.9203     1.5815    56.3985 </r>
       <r>    26.0262     1.2675    56.5327 </r>
       <r>    26.1321     1.4056    56.6815 </r>
       <r>    26.2379     1.4023    56.8300 </r>
       <r>    26.3438     1.0992    56.9464 </r>
       <r>    26.4497     0.9664    57.0487 </r>
       <r>    26.5556     1.3305    57.1896 </r>
       <r>    26.6615     1.5885    57.3578 </r>
       <r>    26.7674     1.4820    57.5147 </r>
       <r>    26.8732     1.4559    57.6688 </r>
       <r>    26.9791     1.4575    57.8232 </r>
       <r>    27.0850     1.4856    57.9805 </r>
       <r>    27.1909     1.5527    58.1449 </r>
       <r>    27.2968     1.0991    58.2612 </r>
       <r>    27.4026     0.4603    58.3100 </r>
       <r>    27.5085     0.5338    58.3665 </r>
       <r>    27.6144     0.9203    58.4639 </r>
       <r>    27.7203     0.9774    58.5674 </r>
       <r>    27.8262     1.1635    58.6906 </r>
       <r>    27.9320     1.5447    58.8542 </r>
       <r>    28.0379     1.4555    59.0083 </r>
       <r>    28.1438     1.0017    59.1143 </r>
       <r>    28.2497     0.7176    59.1903 </r>
       <r>    28.3556     0.6634    59.2606 </r>
       <r>    28.4615     0.8052    59.3458 </r>
       <r>    28.5673     1.2334    59.4764 </r>
       <r>    28.6732     1.5461    59.6401 </r>
       <r>    28.7791     1.2790    59.7755 </r>
       <r>    28.8850     0.6669    59.8462 </r>
       <r>    28.9909     0.1575    59.8628 </r>
       <r>    29.0967    -0.0110    59.8617 </r>
       <r>    29.2026     0.2042    59.8833 </r>
       <r>    29.3085     0.5190    59.9382 </r>
       <r>    29.4144     0.4700    59.9880 </r>
       <r>    29.5203     0.1550    60.0044 </r>
       <r>    29.6261    -0.0144    60.0029 </r>
       <r>    29.7320    -0.0213    60.0006 </r>
       <r>    29.8379    -0.0052    60.0001 </r>
       <r>    29.9438    -0.0006    60.0000 </r>
       <r>    30.0497    -0.0000    60.0000 </r>
       <r>    30.1555    -0.0000    60.0000 </r>
       <r>    30.2614    -0.0000    60.0000 </r>
       <r>    30.3673    -0.0000    60.0000 </r>
       <r>    30.4732    -0.0000    60.0000 </r>
       <r>    30.5791    -0.0000    60.0000 </r>
       <r>    30.6850     0.0000    60.0000 </r>
       <r>    30.7908     0.0000    60.0000 </r>
       <r>    30.8967     0.0000    60.0000 </r>
       <r>    31.0026     0.0000    60.0000 </r>
       <r>    31.1085     0.0000    60.0000 </r>
       <r>    31.2144     0.0000    60.0000 </r>
       <r>    31.3202     0.0000    60.0000 </r>
      </set>
     </set>
    </array>
   </total>
  </dos>
 </calculation>
 <structure name="finalpos" >
  <crystal>
   <varray name="basis" >
    <v>       3.63500000       0.00000000       0.00000000 </v>
    <v>       0.00000000       3.63500000       0.00000000 </v>
    <v>       0.00000000       0.00000000       3.63500000 </v>
   </varray>
   <i name="volume">     48.03007287 </i>
   <varray name="rec_basis" >
    <v>       0.27510316       0.00000000       0.00000000 </v>
    <v>       0.00000000       0.27510316       0.00000000 </v>
    <v>       0.00000000       0.00000000       0.27510316 </v>
   </varray>
  </crystal>
  <varray name="positions" >
   <v>       0.00000000       0.00000000       0.00000000 </v>
   <v>       0.50000000       0.50000000       0.00000000 </v>
   <v>       0.50000000       0.00000000       0.50000000 </v>
   <v>       0.00000000       0.50000000       0.50000000 </v>
  </varray>
 </structure>
</modeling>
