   4   4   0   0
  0.1200752E+02  0.3635000E-09  0.3635000E-09  0.3635000E-09  0.5000000E-15
  1.000000000000000E-004
  CAR 
 unknown system                          
     31.42333731     -0.44469398  301     12.49644514      1.00000000
     -0.445  0.0000E+00  0.0000E+00
     -0.338  0.0000E+00  0.0000E+00
     -0.232  0.0000E+00  0.0000E+00
     -0.126 -0.6818E-32 -0.7242E-33
     -0.020 -0.3640E-28 -0.3867E-29
      0.086 -0.1100E-24 -0.1169E-25
      0.193 -0.1882E-21 -0.2001E-22
      0.299 -0.1821E-18 -0.1936E-19
      0.405 -0.9638E-16 -0.1026E-16
      0.511 -0.2960E-13 -0.3154E-14
      0.618 -0.5105E-11 -0.5455E-12
      0.724 -0.4947E-09 -0.5310E-10
      0.830 -0.2690E-07 -0.2910E-08
      0.936 -0.8201E-06 -0.9003E-07
      1.042 -0.1405E-04 -0.1582E-05
      1.149 -0.1355E-03 -0.1597E-04
      1.255 -0.7302E-03 -0.9354E-04
      1.361 -0.2014E-02 -0.3075E-03
      1.467 -0.9007E-03 -0.4032E-03
      1.574  0.1331E-01  0.1011E-02
      1.680  0.5096E-01  0.6424E-02
      1.786  0.9674E-01  0.1670E-01
      1.892  0.1128E+00  0.2868E-01
      1.999  0.1070E+00  0.4005E-01
      2.105  0.1499E+00  0.5598E-01
      2.211  0.2344E+00  0.8088E-01
      2.317  0.2356E+00  0.1059E+00
      2.423  0.1560E+00  0.1225E+00
      2.530  0.1661E+00  0.1401E+00
      2.636  0.2736E+00  0.1692E+00
      2.742  0.3274E+00  0.2040E+00
      2.848  0.3008E+00  0.2359E+00
      2.955  0.2790E+00  0.2655E+00
      3.061  0.3450E+00  0.3022E+00
      3.167  0.4227E+00  0.3471E+00
      3.273  0.3670E+00  0.3861E+00
      3.379  0.2893E+00  0.4168E+00
      3.486  0.3557E+00  0.4546E+00
      3.592  0.5407E+00  0.5120E+00
      3.698  0.6805E+00  0.5843E+00
      3.804  0.6985E+00  0.6585E+00
      3.911  0.6215E+00  0.7245E+00
      4.017  0.5861E+00  0.7868E+00
      4.123  0.8502E+00  0.8771E+00
      4.229  0.1246E+01  0.1009E+01
      4.336  0.1323E+01  0.1150E+01
      4.442  0.1353E+01  0.1294E+01
      4.548  0.1831E+01  0.1488E+01
      4.654  0.2311E+01  0.1734E+01
      4.760  0.2367E+01  0.1985E+01
      4.867  0.2301E+01  0.2230E+01
      4.973  0.2282E+01  0.2472E+01
      5.079  0.2522E+01  0.2740E+01
      5.185  0.3435E+01  0.3105E+01
      5.292  0.4381E+01  0.3570E+01
      5.398  0.4562E+01  0.4055E+01
      5.504  0.4614E+01  0.4545E+01
      5.610  0.5002E+01  0.5076E+01
      5.716  0.5381E+01  0.5648E+01
      5.823  0.5596E+01  0.6242E+01
      5.929  0.5556E+01  0.6832E+01
      6.035  0.5284E+01  0.7394E+01
      6.141  0.4953E+01  0.7920E+01
      6.248  0.4777E+01  0.8427E+01
      6.354  0.4852E+01  0.8943E+01
      6.460  0.4842E+01  0.9457E+01
      6.566  0.4403E+01  0.9925E+01
      6.672  0.3842E+01  0.1033E+02
      6.779  0.3542E+01  0.1071E+02
      6.885  0.3482E+01  0.1108E+02
      6.991  0.3520E+01  0.1145E+02
      7.097  0.3511E+01  0.1183E+02
      7.204  0.3454E+01  0.1219E+02
      7.310  0.3539E+01  0.1257E+02
      7.416  0.3897E+01  0.1298E+02
      7.522  0.4389E+01  0.1345E+02
      7.629  0.4841E+01  0.1396E+02
      7.735  0.5353E+01  0.1453E+02
      7.841  0.5723E+01  0.1514E+02
      7.947  0.5537E+01  0.1573E+02
      8.053  0.4934E+01  0.1625E+02
      8.160  0.4557E+01  0.1674E+02
      8.266  0.4637E+01  0.1723E+02
      8.372  0.4701E+01  0.1773E+02
      8.478  0.4901E+01  0.1825E+02
      8.585  0.5860E+01  0.1887E+02
      8.691  0.7416E+01  0.1966E+02
      8.797  0.8936E+01  0.2061E+02
      8.903  0.9710E+01  0.2164E+02
      9.009  0.9091E+01  0.2261E+02
      9.116  0.7509E+01  0.2340E+02
      9.222  0.6292E+01  0.2407E+02
      9.328  0.5989E+01  0.2471E+02
      9.434  0.6168E+01  0.2536E+02
      9.541  0.6416E+01  0.2604E+02
      9.647  0.6540E+01  0.2674E+02
      9.753  0.6783E+01  0.2746E+02
      9.859  0.6953E+01  0.2820E+02
      9.966  0.6191E+01  0.2886E+02
     10.072  0.4941E+01  0.2938E+02
     10.178  0.4466E+01  0.2986E+02
     10.284  0.4648E+01  0.3035E+02
     10.390  0.4395E+01  0.3082E+02
     10.497  0.3620E+01  0.3120E+02
     10.603  0.3026E+01  0.3152E+02
     10.709  0.2749E+01  0.3181E+02
     10.815  0.2737E+01  0.3210E+02
     10.922  0.3135E+01  0.3244E+02
     11.028  0.3997E+01  0.3286E+02
     11.134  0.5039E+01  0.3340E+02
     11.240  0.5851E+01  0.3402E+02
     11.346  0.6155E+01  0.3467E+02
     11.453  0.5767E+01  0.3529E+02
     11.559  0.5091E+01  0.3583E+02
     11.665  0.4741E+01  0.3633E+02
     11.771  0.4609E+01  0.3682E+02
     11.878  0.4294E+01  0.3728E+02
     11.984  0.4229E+01  0.3772E+02
     12.090  0.4792E+01  0.3823E+02
     12.196  0.5229E+01  0.3879E+02
     12.303  0.4787E+01  0.3930E+02
     12.409  0.3861E+01  0.3971E+02
     12.515  0.3310E+01  0.4006E+02
     12.621  0.3226E+01  0.4040E+02
     12.727  0.3292E+01  0.4075E+02
     12.834  0.3232E+01  0.4110E+02
     12.940  0.2878E+01  0.4140E+02
     13.046  0.2613E+01  0.4168E+02
     13.152  0.2721E+01  0.4197E+02
     13.259  0.2764E+01  0.4226E+02
     13.365  0.2442E+01  0.4252E+02
     13.471  0.2031E+01  0.4274E+02
     13.577  0.1678E+01  0.4291E+02
     13.683  0.1337E+01  0.4306E+02
     13.790  0.1177E+01  0.4318E+02
     13.896  0.1208E+01  0.4331E+02
     14.002  0.1140E+01  0.4343E+02
     14.108  0.9475E+00  0.4353E+02
     14.215  0.8683E+00  0.4362E+02
     14.321  0.9382E+00  0.4372E+02
     14.427  0.9186E+00  0.4382E+02
     14.533  0.6940E+00  0.4390E+02
     14.640  0.4747E+00  0.4395E+02
     14.746  0.4682E+00  0.4400E+02
     14.852  0.6538E+00  0.4406E+02
     14.958  0.7757E+00  0.4415E+02
     15.064  0.6659E+00  0.4422E+02
     15.171  0.5681E+00  0.4428E+02
     15.277  0.6512E+00  0.4435E+02
     15.383  0.6934E+00  0.4442E+02
     15.489  0.6031E+00  0.4449E+02
     15.596  0.6076E+00  0.4455E+02
     15.702  0.7523E+00  0.4463E+02
     15.808  0.8318E+00  0.4472E+02
     15.914  0.7731E+00  0.4480E+02
     16.020  0.7092E+00  0.4488E+02
     16.127  0.7639E+00  0.4496E+02
     16.233  0.9374E+00  0.4506E+02
     16.339  0.1221E+01  0.4519E+02
     16.445  0.1407E+01  0.4534E+02
     16.552  0.1349E+01  0.4548E+02
     16.658  0.1264E+01  0.4561E+02
     16.764  0.1244E+01  0.4574E+02
     16.870  0.1196E+01  0.4587E+02
     16.976  0.1055E+01  0.4598E+02
     17.083  0.8109E+00  0.4607E+02
     17.189  0.5976E+00  0.4613E+02
     17.295  0.6033E+00  0.4620E+02
     17.401  0.6890E+00  0.4627E+02
     17.508  0.7045E+00  0.4635E+02
     17.614  0.8011E+00  0.4643E+02
     17.720  0.9504E+00  0.4653E+02
     17.826  0.1090E+01  0.4665E+02
     17.933  0.1196E+01  0.4677E+02
     18.039  0.1065E+01  0.4689E+02
     18.145  0.6845E+00  0.4696E+02
     18.251  0.3463E+00  0.4700E+02
     18.357  0.3072E+00  0.4703E+02
     18.464  0.5953E+00  0.4709E+02
     18.570  0.9126E+00  0.4719E+02
     18.676  0.9658E+00  0.4729E+02
     18.782  0.7583E+00  0.4737E+02
     18.889  0.4550E+00  0.4742E+02
     18.995  0.2227E+00  0.4745E+02
     19.101  0.1904E+00  0.4747E+02
     19.207  0.4015E+00  0.4751E+02
     19.313  0.6433E+00  0.4758E+02
     19.420  0.7158E+00  0.4765E+02
     19.526  0.7632E+00  0.4773E+02
     19.632  0.9885E+00  0.4784E+02
     19.738  0.1339E+01  0.4798E+02
     19.845  0.1516E+01  0.4814E+02
     19.951  0.1352E+01  0.4829E+02
     20.057  0.1085E+01  0.4840E+02
     20.163  0.9953E+00  0.4851E+02
     20.270  0.1109E+01  0.4862E+02
     20.376  0.1292E+01  0.4876E+02
     20.482  0.1359E+01  0.4891E+02
     20.588  0.1209E+01  0.4903E+02
     20.694  0.1134E+01  0.4915E+02
     20.801  0.1334E+01  0.4930E+02
     20.907  0.1436E+01  0.4945E+02
     21.013  0.1271E+01  0.4958E+02
     21.119  0.1108E+01  0.4970E+02
     21.226  0.1081E+01  0.4982E+02
     21.332  0.1077E+01  0.4993E+02
     21.438  0.9879E+00  0.5004E+02
     21.544  0.9403E+00  0.5014E+02
     21.650  0.1094E+01  0.5025E+02
     21.757  0.1225E+01  0.5038E+02
     21.863  0.1099E+01  0.5050E+02
     21.969  0.9350E+00  0.5060E+02
     22.075  0.9028E+00  0.5069E+02
     22.182  0.1005E+01  0.5080E+02
     22.288  0.1186E+01  0.5093E+02
     22.394  0.1294E+01  0.5106E+02
     22.500  0.1311E+01  0.5120E+02
     22.607  0.1230E+01  0.5133E+02
     22.713  0.1067E+01  0.5145E+02
     22.819  0.1022E+01  0.5156E+02
     22.925  0.1241E+01  0.5169E+02
     23.031  0.1523E+01  0.5185E+02
     23.138  0.1474E+01  0.5201E+02
     23.244  0.1142E+01  0.5213E+02
     23.350  0.9313E+00  0.5223E+02
     23.456  0.9680E+00  0.5233E+02
     23.563  0.1134E+01  0.5245E+02
     23.669  0.1387E+01  0.5260E+02
     23.775  0.1591E+01  0.5277E+02
     23.881  0.1506E+01  0.5293E+02
     23.987  0.1218E+01  0.5305E+02
     24.094  0.1046E+01  0.5317E+02
     24.200  0.1090E+01  0.5328E+02
     24.306  0.1263E+01  0.5342E+02
     24.412  0.1532E+01  0.5358E+02
     24.519  0.1887E+01  0.5378E+02
     24.625  0.2136E+01  0.5401E+02
     24.731  0.2048E+01  0.5422E+02
     24.837  0.1752E+01  0.5441E+02
     24.944  0.1571E+01  0.5458E+02
     25.050  0.1609E+01  0.5475E+02
     25.156  0.1611E+01  0.5492E+02
     25.262  0.1492E+01  0.5508E+02
     25.368  0.1508E+01  0.5524E+02
     25.475  0.1639E+01  0.5541E+02
     25.581  0.1614E+01  0.5558E+02
     25.687  0.1431E+01  0.5573E+02
     25.793  0.1317E+01  0.5587E+02
     25.900  0.1489E+01  0.5603E+02
     26.006  0.1799E+01  0.5622E+02
     26.112  0.1966E+01  0.5643E+02
     26.218  0.2054E+01  0.5665E+02
     26.324  0.2093E+01  0.5687E+02
     26.431  0.1898E+01  0.5708E+02
     26.537  0.1538E+01  0.5724E+02
     26.643  0.1388E+01  0.5739E+02
     26.749  0.1558E+01  0.5755E+02
     26.856  0.1669E+01  0.5773E+02
     26.962  0.1479E+01  0.5789E+02
     27.068  0.1233E+01  0.5802E+02
     27.174  0.1182E+01  0.5814E+02
     27.280  0.1221E+01  0.5827E+02
     27.387  0.1193E+01  0.5840E+02
     27.493  0.1217E+01  0.5853E+02
     27.599  0.1360E+01  0.5867E+02
     27.705  0.1407E+01  0.5882E+02
     27.812  0.1312E+01  0.5896E+02
     27.918  0.1104E+01  0.5908E+02
     28.024  0.7940E+00  0.5916E+02
     28.130  0.5811E+00  0.5922E+02
     28.237  0.5286E+00  0.5928E+02
     28.343  0.5776E+00  0.5934E+02
     28.449  0.6429E+00  0.5941E+02
     28.555  0.6231E+00  0.5948E+02
     28.661  0.5089E+00  0.5953E+02
     28.768  0.4311E+00  0.5958E+02
     28.874  0.5335E+00  0.5963E+02
     28.980  0.7483E+00  0.5971E+02
     29.086  0.8338E+00  0.5980E+02
     29.193  0.7114E+00  0.5988E+02
     29.299  0.5486E+00  0.5994E+02
     29.405  0.4050E+00  0.5998E+02
     29.511  0.2029E+00  0.6000E+02
     29.617  0.3203E-01  0.6000E+02
     29.724 -0.1749E-01  0.6000E+02
     29.830 -0.9410E-02  0.6000E+02
     29.936 -0.1850E-02  0.6000E+02
     30.042 -0.1839E-03  0.6000E+02
     30.149 -0.9956E-05  0.6000E+02
     30.255 -0.3016E-06  0.6000E+02
     30.361 -0.5166E-08  0.6000E+02
     30.467 -0.5024E-10  0.6000E+02
     30.574 -0.2778E-12  0.6000E+02
     30.680 -0.8795E-15  0.6000E+02
     30.786  0.0000E+00  0.6000E+02
     30.892  0.0000E+00  0.6000E+02
     30.998  0.0000E+00  0.6000E+02
     31.105  0.0000E+00  0.6000E+02
     31.211  0.0000E+00  0.6000E+02
     31.317  0.0000E+00  0.6000E+02
     31.423  0.0000E+00  0.6000E+02
