    4    4    1    1
  0.1200752E+02  0.3635000E-09  0.3635000E-09  0.3635000E-09  0.5000000E-15
  1.000000000000000E-004
  CAR 
 unknown system                          
     40    216     30
 
  0.0000000E+00  0.0000000E+00  0.0000000E+00  0.7513148E-03
    1        1.555306   1.000000
    2        3.772478   1.000000
    3        4.997775   1.000000
    4        5.052177   1.000000
    5        5.108294   1.000000
    6        5.251801   1.000000
    7        5.281884   1.000000
    8        8.507210   1.000000
    9        8.521957   1.000000
   10        8.684844   1.000000
   11       10.177746   1.000000
   12       10.354927   1.000000
   13       11.256200   1.000000
   14       11.483947   1.000000
   15       11.666461   1.000000
   16       12.574491   0.195988
   17       12.812495  -0.023980
   18       12.996028  -0.001169
   19       13.351565  -0.000000
   20       13.995821  -0.000000
   21       14.499465  -0.000000
   22       14.505105  -0.000000
   23       14.537683  -0.000000
   24       14.777973  -0.000000
   25       23.297181   0.000000
   26       23.485639   0.000000
   27       24.130676   0.000000
   28       24.440982   0.000000
   29       24.721961   0.000000
   30       25.261434   0.000000
 
  0.9090909E-01  0.0000000E+00  0.0000000E+00  0.1502630E-02
    1        1.673062   1.000000
    2        3.857840   1.000000
    3        5.057943   1.000000
    4        5.094458   1.000000
    5        5.185703   1.000000
    6        5.325755   1.000000
    7        5.366824   1.000000
    8        8.449926   1.000000
    9        8.549442   1.000000
   10        8.728426   1.000000
   11       10.182600   1.000000
   12       10.295880   1.000000
   13       11.251646   1.000000
   14       11.344641   1.000000
   15       11.361903   1.000000
   16       11.975162   1.000710
   17       12.757385  -0.034576
   18       12.764134  -0.033759
   19       13.242541  -0.000001
   20       13.382060  -0.000000
   21       14.043847  -0.000000
   22       14.777349  -0.000000
   23       15.298741  -0.000000
   24       15.364345  -0.000000
   25       23.273316   0.000000
   26       23.384360   0.000000
   27       24.184223   0.000000
   28       24.562766   0.000000
   29       24.806603   0.000000
   30       25.883038   0.000000
 
  0.0000000E+00  0.9090909E-01  0.0000000E+00  0.1502630E-02
    1        1.685750   1.000000
    2        3.864599   1.000000
    3        5.046040   1.000000
    4        5.134815   1.000000
    5        5.150401   1.000000
    6        5.326018   1.000000
    7        5.371405   1.000000
    8        8.554680   1.000000
    9        8.567294   1.000000
   10        8.620648   1.000000
   11       10.128331   1.000000
   12       10.367460   1.000000
   13       11.050277   1.000000
   14       11.397383   1.000000
   15       11.455342   1.000000
   16       12.559088   0.248802
   17       12.604522   0.108534
   18       12.989968  -0.001337
   19       13.200549  -0.000004
   20       13.222538  -0.000002
   21       13.638256  -0.000000
   22       14.077637  -0.000000
   23       15.460721  -0.000000
   24       15.761498  -0.000000
   25       22.962335   0.000000
   26       23.675897   0.000000
   27       24.291483   0.000000
   28       24.563851   0.000000
   29       24.987319   0.000000
   30       25.549655   0.000000
 
  0.0000000E+00  0.0000000E+00  0.9090909E-01  0.1502630E-02
    1        1.686746   1.000000
    2        3.867357   1.000000
    3        5.092539   1.000000
    4        5.136259   1.000000
    5        5.187481   1.000000
    6        5.300358   1.000000
    7        5.318010   1.000000
    8        8.432179   1.000000
    9        8.562255   1.000000
   10        8.728538   1.000000
   11       10.146888   1.000000
   12       10.340781   1.000000
   13       11.034632   1.000000
   14       11.399381   1.000000
   15       11.657355   1.000000
   16       12.117853   1.011123
   17       12.545935   0.297531
   18       12.717628  -0.032915
   19       13.176011  -0.000009
   20       13.673740  -0.000000
   21       13.989945  -0.000000
   22       14.096303  -0.000000
   23       15.337673  -0.000000
   24       15.714721  -0.000000
   25       22.738343   0.000000
   26       23.748028   0.000000
   27       24.301626   0.000000
   28       24.825262   0.000000
   29       24.939562   0.000000
   30       25.538316   0.000000
 
  0.1818182E+00  0.0000000E+00  0.0000000E+00  0.1502630E-02
    1        2.014593   1.000000
    2        4.103092   1.000000
    3        5.208062   1.000000
    4        5.221720   1.000000
    5        5.416796   1.000000
    6        5.547288   1.000000
    7        5.630612   1.000000
    8        8.253559   1.000000
    9        8.674961   1.000000
   10        8.863635   1.000000
   11       10.082890   1.000000
   12       10.244207   1.000000
   13       10.599143   1.000000
   14       10.887953   1.000000
   15       11.014979   1.000000
   16       11.242042   1.000000
   17       12.365492   0.943079
   18       12.462036   0.643237
   19       12.707976  -0.030122
   20       12.869092  -0.012122
   21       13.179401  -0.000008
   22       14.776260  -0.000000
   23       16.611484  -0.000000
   24       16.618531  -0.000000
   25       22.580260   0.000000
   26       23.248774   0.000000
   27       24.689860   0.000000
   28       24.783780   0.000000
   29       25.365588   0.000000
   30       25.866917   0.000000
 
  0.0000000E+00  0.1818182E+00  0.0000000E+00  0.1502630E-02
    1        2.068019   1.000000
    2        4.127446   1.000000
    3        5.159871   1.000000
    4        5.272544   1.000000
    5        5.383799   1.000000
    6        5.548115   1.000000
    7        5.651365   1.000000
    8        8.446402   1.000000
    9        8.701762   1.000000
   10        8.709772   1.000000
   11        9.984539   1.000000
   12       10.409551   1.000000
   13       10.506753   1.000000
   14       10.711188   1.000000
   15       11.360929   1.000000
   16       11.986227   1.000919
   17       12.416058   0.811595
   18       12.520259   0.400022
   19       12.696532  -0.025172
   20       12.774859  -0.032058
   21       12.977751  -0.001740
   22       13.116813  -0.000052
   23       16.762709  -0.000000
   24       16.943600  -0.000000
   25       22.261405   0.000000
   26       23.969238   0.000000
   27       24.544585   0.000000
   28       24.621431   0.000000
   29       25.275339   0.000000
   30       26.054175   0.000000
 
  0.0000000E+00  0.0000000E+00  0.1818182E+00  0.1502630E-02
    1        2.072404   1.000000
    2        4.139404   1.000000
    3        5.353058   1.000000
    4        5.390497   1.000000
    5        5.424580   1.000000
    6        5.427743   1.000000
    7        5.445511   1.000000
    8        8.223763   1.000000
    9        8.683747   1.000000
   10        8.863989   1.000000
   11       10.011296   1.000000
   12       10.351561   1.000000
   13       10.465165   1.000000
   14       10.992285   1.000000
   15       11.121424   1.000000
   16       11.637086   1.000000
   17       12.138810   1.014890
   18       12.485606   0.545789
   19       12.540832   0.317214
   20       12.792590  -0.028502
   21       13.201792  -0.000004
   22       13.977190  -0.000000
   23       16.709749  -0.000000
   24       16.883557  -0.000000
   25       21.892242   0.000000
   26       24.150913   0.000000
   27       24.603510   0.000000
   28       24.782846   0.000000
   29       25.473283   0.000000
   30       25.906687   0.000000
 
  0.2727273E+00  0.0000000E+00  0.0000000E+00  0.1502630E-02
    1        2.537413   1.000000
    2        4.471779   1.000000
    3        5.384092   1.000000
    4        5.415655   1.000000
    5        5.796664   1.000000
    6        5.908962   1.000000
    7        6.048970   1.000000
    8        7.970155   1.000000
    9        8.830574   1.000000
   10        9.081534   1.000000
   11        9.779741   1.000000
   12        9.800690   1.000000
   13        9.806270   1.000000
   14       10.284843   1.000000
   15       10.518906   1.000000
   16       11.231069   1.000000
   17       11.390401   1.000000
   18       11.851043   1.000025
   19       12.048819   1.003440
   20       12.339779   0.985660
   21       12.880212  -0.010299
   22       14.775053  -0.000000
   23       17.967350   0.000000
   24       18.046872   0.000000
   25       21.909962   0.000000
   26       23.204748   0.000000
   27       24.298235   0.000000
   28       24.374021   0.000000
   29       24.823491   0.000000
   30       26.448559   0.000000
 
  0.0000000E+00  0.2727273E+00  0.0000000E+00  0.1502630E-02
    1        2.670486   1.000000
    2        4.513014   1.000000
    3        5.275440   1.000000
    4        5.455512   1.000000
    5        5.783237   1.000000
    6        5.904739   1.000000
    7        6.101025   1.000000
    8        8.193850   1.000000
    9        8.947171   1.000000
   10        8.950068   1.000000
   11        9.765894   1.000000
   12        9.773500   1.000000
   13        9.857428   1.000000
   14       10.456333   1.000000
   15       10.908736   1.000000
   16       11.308129   1.000000
   17       11.682935   1.000000
   18       11.820793   1.000010
   19       12.083393   1.006438
   20       12.228696   1.033751
   21       12.471115   0.606234
   22       12.965941  -0.002227
   23       18.153681   0.000000
   24       18.200400   0.000000
   25       21.669526   0.000000
   26       23.879151   0.000000
   27       24.157542   0.000000
   28       24.329477   0.000000
   29       25.500349   0.000000
   30       25.676013   0.000000
 
  0.0000000E+00  0.0000000E+00  0.2727273E+00  0.1502630E-02
    1        2.682280   1.000000
    2        4.540140   1.000000
    3        5.505584   1.000000
    4        5.674408   1.000000
    5        5.794468   1.000000
    6        5.804414   1.000000
    7        5.814475   1.000000
    8        7.911664   1.000000
    9        8.838806   1.000000
   10        9.084004   1.000000
   11        9.759912   1.000000
   12        9.763499   1.000000
   13        9.875961   1.000000
   14       10.400651   1.000000
   15       10.640970   1.000000
   16       11.374631   1.000000
   17       11.613241   1.000000
   18       11.623634   1.000000
   19       11.968002   1.000599
   20       12.172381   1.022129
   21       12.540533   0.318381
   22       13.962178  -0.000000
   23       18.140728   0.000000
   24       18.179978   0.000000
   25       21.216689   0.000000
   26       24.210172   0.000000
   27       24.240366   0.000000
   28       24.458552   0.000000
   29       25.314908   0.000000
   30       25.903393   0.000000
 
  0.3636364E+00  0.0000000E+00  0.0000000E+00  0.1502630E-02
    1        3.142094   1.000000
    2        4.888706   1.000000
    3        5.508903   1.000000
    4        5.638096   1.000000
    5        6.312538   1.000000
    6        6.392956   1.000000
    7        6.526344   1.000000
    8        7.666844   1.000000
    9        8.597288   1.000000
   10        8.800852   1.000000
   11        9.359636   1.000000
   12        9.437231   1.000000
   13        9.475344   1.000000
   14       10.002175   1.000000
   15       10.250132   1.000000
   16       10.366435   1.000000
   17       11.223308   1.000000
   18       11.324797   1.000000
   19       11.433649   1.000000
   20       11.803859   1.000006
   21       12.768448  -0.033128
   22       14.774155  -0.000000
   23       19.353916   0.000000
   24       19.480640   0.000000
   25       21.455676   0.000000
   26       23.188211   0.000000
   27       23.424656   0.000000
   28       23.593232   0.000000
   29       24.048573   0.000000
   30       26.985023   0.000000
 
  0.0000000E+00  0.3636364E+00  0.0000000E+00  0.1502630E-02
    1        3.424354   1.000000
    2        4.903094   1.000000
    3        5.319021   1.000000
    4        5.658829   1.000000
    5        6.297755   1.000000
    6        6.364481   1.000000
    7        6.635970   1.000000
    8        7.927297   1.000000
    9        8.985779   1.000000
   10        8.996923   1.000000
   11        9.293550   1.000000
   12        9.313256   1.000000
   13        9.501840   1.000000
   14        9.933137   1.000000
   15       10.414352   1.000000
   16       10.999976   1.000000
   17       11.037786   1.000000
   18       11.098261   1.000000
   19       11.306667   1.000000
   20       11.678844   1.000000
   21       12.428062   0.771455
   22       12.958072  -0.002613
   23       19.501240   0.000000
   24       19.583772   0.000000
   25       21.270410   0.000000
   26       23.258380   0.000000
   27       23.515220   0.000000
   28       23.689094   0.000000
   29       25.375533   0.000000
   30       25.666916   0.000000
 
  0.0000000E+00  0.0000000E+00  0.3636364E+00  0.1502630E-02
    1        3.453280   1.000000
    2        4.921489   1.000000
    3        5.573971   1.000000
    4        5.958652   1.000000
    5        6.251868   1.000000
    6        6.347663   1.000000
    7        6.359932   1.000000
    8        7.552027   1.000000
    9        8.605342   1.000000
   10        8.822577   1.000000
   11        9.405133   1.000000
   12        9.450119   1.000000
   13        9.462624   1.000000
   14       10.027991   1.000000
   15       10.285030   1.000000
   16       10.505333   1.000000
   17       11.082672   1.000000
   18       11.234139   1.000000
   19       11.593947   1.000000
   20       11.637810   1.000000
   21       12.247976   1.035411
   22       13.949723  -0.000000
   23       19.449084   0.000000
   24       19.673824   0.000000
   25       20.771280   0.000000
   26       23.256571   0.000000
   27       23.673903   0.000000
   28       24.220423   0.000000
   29       24.840502   0.000000
   30       26.144864   0.000000
 
  0.4545455E+00  0.0000000E+00  0.0000000E+00  0.1502630E-02
    1        3.608520   1.000000
    2        5.226462   1.000000
    3        5.501398   1.000000
    4        5.806582   1.000000
    5        6.876967   1.000000
    6        6.905051   1.000000
    7        6.926506   1.000000
    8        7.451794   1.000000
    9        7.951354   1.000000
   10        7.961787   1.000000
   11        9.237486   1.000000
   12        9.423264   1.000000
   13        9.611022   1.000000
   14        9.617177   1.000000
   15        9.828436   1.000000
   16       10.381603   1.000000
   17       10.934793   1.000000
   18       10.992167   1.000000
   19       11.218042   1.000000
   20       11.411711   1.000000
   21       12.718201  -0.033045
   22       14.773821  -0.000000
   23       20.630218   0.000000
   24       20.762659   0.000000
   25       21.229183   0.000000
   26       22.380984   0.000000
   27       22.605787   0.000000
   28       23.224639   0.000000
   29       23.601989   0.000000
   30       27.191144   0.000000
 
  0.0000000E+00  0.4545455E+00  0.0000000E+00  0.1502630E-02
    1        4.165695   1.000000
    2        4.933484   1.000000
    3        5.366343   1.000000
    4        5.805342   1.000000
    5        6.802339   1.000000
    6        6.811570   1.000000
    7        7.057711   1.000000
    8        7.741498   1.000000
    9        8.334033   1.000000
   10        8.362594   1.000000
   11        9.114546   1.000000
   12        9.494811   1.000000
   13        9.710428   1.000000
   14        9.714897   1.000000
   15       10.212600   1.000000
   16       10.385977   1.000000
   17       10.411751   1.000000
   18       10.773304   1.000000
   19       11.098763   1.000000
   20       11.384114   1.000000
   21       12.404474   0.847258
   22       12.954275  -0.002819
   23       20.787704   0.000000
   24       20.998409   0.000000
   25       21.072420   0.000000
   26       22.135029   0.000000
   27       22.351138   0.000000
   28       23.567223   0.000000
   29       25.254084   0.000000
   30       25.706670   0.000000
 
  0.0000000E+00  0.0000000E+00  0.4545455E+00  0.1502630E-02
    1        4.258219   1.000000
    2        4.859944   1.000000
    3        5.687930   1.000000
    4        6.211585   1.000000
    5        6.581649   1.000000
    6        6.990414   1.000000
    7        7.010431   1.000000
    8        7.253778   1.000000
    9        7.886844   1.000000
   10        7.935318   1.000000
   11        9.174627   1.000000
   12        9.409429   1.000000
   13        9.702421   1.000000
   14        9.705048   1.000000
   15        9.900280   1.000000
   16       10.559301   1.000000
   17       10.641223   1.000000
   18       10.683276   1.000000
   19       11.179582   1.000000
   20       11.583505   1.000000
   21       12.150486   1.017268
   22       13.943326  -0.000000
   23       20.553379   0.000000
   24       20.752074   0.000000
   25       21.137008   0.000000
   26       22.101419   0.000000
   27       22.505028   0.000000
   28       24.200714   0.000000
   29       24.587524   0.000000
   30       26.242339   0.000000
 
  0.9090909E-01  0.9090909E-01  0.0000000E+00  0.3005259E-02
    1        1.802103   1.000000
    2        3.948943   1.000000
    3        5.113017   1.000000
    4        5.168551   1.000000
    5        5.237790   1.000000
    6        5.370061   1.000000
    7        5.479556   1.000000
    8        8.458421   1.000000
    9        8.593110   1.000000
   10        8.707267   1.000000
   11       10.133497   1.000000
   12       10.311577   1.000000
   13       10.994607   1.000000
   14       11.093822   1.000000
   15       11.350247   1.000000
   16       12.041624   1.002991
   17       12.544130   0.304446
   18       12.644858   0.026293
   19       12.739987  -0.035450
   20       13.109059  -0.000065
   21       14.009661  -0.000000
   22       14.587398  -0.000000
   23       15.285585  -0.000000
   24       16.143824  -0.000000
   25       22.965491   0.000000
   26       23.737908   0.000000
   27       24.174715   0.000000
   28       24.720946   0.000000
   29       24.970922   0.000000
   30       26.191080   0.000000
 
  0.0000000E+00  0.9090909E-01  0.9090909E-01  0.3005259E-02
    1        1.813860   1.000000
    2        3.958609   1.000000
    3        5.121471   1.000000
    4        5.222384   1.000000
    5        5.230367   1.000000
    6        5.381771   1.000000
    7        5.417734   1.000000
    8        8.443912   1.000000
    9        8.604269   1.000000
   10        8.705950   1.000000
   11       10.108800   1.000000
   12       10.346611   1.000000
   13       10.836385   1.000000
   14       11.291952   1.000000
   15       11.396655   1.000000
   16       12.212507   1.031030
   17       12.518123   0.408869
   18       12.521402   0.395304
   19       12.802293  -0.026331
   20       13.051007  -0.000314
   21       13.563525  -0.000000
   22       14.545917  -0.000000
   23       15.760155  -0.000000
   24       15.964651  -0.000000
   25       22.951611   0.000000
   26       23.310043   0.000000
   27       24.482916   0.000000
   28       24.661309   0.000000
   29       25.632782   0.000000
   30       25.726498   0.000000
 
  0.9090909E-01  0.0000000E+00  0.9090909E-01  0.3005259E-02
    1        1.802914   1.000000
    2        3.951841   1.000000
    3        5.135902   1.000000
    4        5.174814   1.000000
    5        5.275902   1.000000
    6        5.380089   1.000000
    7        5.409253   1.000000
    8        8.384103   1.000000
    9        8.586468   1.000000
   10        8.769161   1.000000
   11       10.160512   1.000000
   12       10.277789   1.000000
   13       10.934876   1.000000
   14       11.285930   1.000000
   15       11.462523   1.000000
   16       11.779222   1.000002
   17       11.937343   1.000280
   18       12.684349  -0.017659
   19       13.172999  -0.000009
   20       13.273494  -0.000000
   21       14.189057  -0.000000
   22       14.745239  -0.000000
   23       14.978677  -0.000000
   24       16.134184  -0.000000
   25       22.788612   0.000000
   26       23.788504   0.000000
   27       24.172813   0.000000
   28       24.958325   0.000000
   29       24.959804   0.000000
   30       26.085618   0.000000
 
  0.1818182E+00  0.9090909E-01  0.0000000E+00  0.3005259E-02
    1        2.139606   1.000000
    2        4.191478   1.000000
    3        5.278276   1.000000
    4        5.290923   1.000000
    5        5.470252   1.000000
    6        5.557423   1.000000
    7        5.752831   1.000000
    8        8.246960   1.000000
    9        8.697968   1.000000
   10        8.858662   1.000000
   11       10.067641   1.000000
   12       10.202494   1.000000
   13       10.420743   1.000000
   14       10.603896   1.000000
   15       11.020786   1.000000
   16       11.389739   1.000000
   17       11.740146   1.000001
   18       12.350004   0.970616
   19       12.473502   0.596378
   20       12.834103  -0.019061
   21       13.965375  -0.000000
   22       14.268553  -0.000000
   23       16.170193  -0.000000
   24       17.150382  -0.000000
   25       22.464159   0.000000
   26       23.462297   0.000000
   27       24.395661   0.000000
   28       24.938817   0.000000
   29       25.385645   0.000000
   30       26.109348   0.000000
 
  0.0000000E+00  0.1818182E+00  0.9090909E-01  0.3005259E-02
    1        2.186319   1.000000
    2        4.219039   1.000000
    3        5.229341   1.000000
    4        5.334380   1.000000
    5        5.456198   1.000000
    6        5.608630   1.000000
    7        5.720774   1.000000
    8        8.369947   1.000000
    9        8.728567   1.000000
   10        8.753194   1.000000
   11        9.980239   1.000000
   12       10.257373   1.000000
   13       10.468633   1.000000
   14       10.581695   1.000000
   15       11.315996   1.000000
   16       11.625926   1.000000
   17       12.107293   1.009488
   18       12.111703   1.010149
   19       12.449524   0.692609
   20       12.658725   0.007093
   21       13.062819  -0.000232
   22       13.934330  -0.000000
   23       16.601605  -0.000000
   24       17.117126  -0.000000
   25       22.313674   0.000000
   26       23.473946   0.000000
   27       24.548669   0.000000
   28       24.790379   0.000000
   29       25.796290   0.000000
   30       26.025738   0.000000
 
  0.9090909E-01  0.0000000E+00  0.1818182E+00  0.3005259E-02
    1        2.183690   1.000000
    2        4.221633   1.000000
    3        5.354741   1.000000
    4        5.397631   1.000000
    5        5.490822   1.000000
    6        5.552651   1.000000
    7        5.576510   1.000000
    8        8.181648   1.000000
    9        8.704775   1.000000
   10        8.886926   1.000000
   11       10.021401   1.000000
   12       10.277660   1.000000
   13       10.368712   1.000000
   14       10.784283   1.000000
   15       11.052149   1.000000
   16       11.275436   1.000000
   17       11.505788   1.000000
   18       12.458653   0.656789
   19       12.756807  -0.034635
   20       12.859650  -0.013823
   21       13.770038  -0.000000
   22       13.807961  -0.000000
   23       16.218639  -0.000000
   24       17.244268  -0.000000
   25       21.961061   0.000000
   26       24.077586   0.000000
   27       24.641582   0.000000
   28       25.024502   0.000000
   29       25.205487   0.000000
   30       25.890314   0.000000
 
 -0.9090909E-01  0.1818182E+00  0.0000000E+00  0.3005259E-02
    1        2.180124   1.000000
    2        4.209102   1.000000
    3        5.238179   1.000000
    4        5.325790   1.000000
    5        5.447762   1.000000
    6        5.565281   1.000000
    7        5.765192   1.000000
    8        8.376738   1.000000
    9        8.721212   1.000000
   10        8.758299   1.000000
   11        9.989709   1.000000
   12       10.283758   1.000000
   13       10.420397   1.000000
   14       10.572923   1.000000
   15       11.241927   1.000000
   16       11.543554   1.000000
   17       12.055791   1.003927
   18       12.218389   1.032122
   19       12.633800   0.044828
   20       12.729010  -0.034816
   21       13.194815  -0.000005
   22       13.795234  -0.000000
   23       16.334179  -0.000000
   24       17.278987  -0.000000
   25       22.243676   0.000000
   26       23.949607   0.000000
   27       24.616353   0.000000
   28       24.858915   0.000000
   29       25.145694   0.000000
   30       25.843294   0.000000
 
 -0.1818182E+00  0.0000000E+00  0.9090909E-01  0.3005259E-02
    1        2.139851   1.000000
    2        4.194737   1.000000
    3        5.273762   1.000000
    4        5.292593   1.000000
    5        5.489791   1.000000
    6        5.607173   1.000000
    7        5.696110   1.000000
    8        8.203013   1.000000
    9        8.699587   1.000000
   10        8.886124   1.000000
   11       10.089444   1.000000
   12       10.192452   1.000000
   13       10.440726   1.000000
   14       10.668503   1.000000
   15       10.978880   1.000000
   16       11.262899   1.000000
   17       11.416581   1.000000
   18       12.518424   0.407619
   19       12.671467  -0.006846
   20       13.000304  -0.001062
   21       13.876589  -0.000000
   22       14.310150  -0.000000
   23       16.102370  -0.000000
   24       17.131123  -0.000000
   25       22.418920   0.000000
   26       23.477948   0.000000
   27       24.380920   0.000000
   28       25.043635   0.000000
   29       25.360773   0.000000
   30       26.108253   0.000000
 
  0.0000000E+00  0.9090909E-01  0.1818182E+00  0.3005259E-02
    1        2.189664   1.000000
    2        4.228147   1.000000
    3        5.354235   1.000000
    4        5.421947   1.000000
    5        5.439550   1.000000
    6        5.559362   1.000000
    7        5.594703   1.000000
    8        8.219036   1.000000
    9        8.706538   1.000000
   10        8.858236   1.000000
   11        9.999798   1.000000
   12       10.243261   1.000000
   13       10.394660   1.000000
   14       10.719455   1.000000
   15       11.149929   1.000000
   16       11.699722   1.000000
   17       11.719922   1.000000
   18       12.157097   1.018690
   19       12.350397   0.969989
   20       12.611572   0.091220
   21       13.691987  -0.000000
   22       13.987450  -0.000000
   23       16.551250  -0.000000
   24       17.102802  -0.000000
   25       22.020675   0.000000
   26       23.672829   0.000000
   27       24.554415   0.000000
   28       24.845997   0.000000
   29       25.777302   0.000000
   30       26.291305   0.000000
 
  0.2727273E+00  0.9090909E-01  0.0000000E+00  0.3005259E-02
    1        2.657351   1.000000
    2        4.557208   1.000000
    3        5.465292   1.000000
    4        5.483691   1.000000
    5        5.846051   1.000000
    6        5.898114   1.000000
    7        6.159913   1.000000
    8        7.961832   1.000000
    9        8.799856   1.000000
   10        9.080985   1.000000
   11        9.610031   1.000000
   12        9.713691   1.000000
   13        9.813829   1.000000
   14       10.231739   1.000000
   15       10.550242   1.000000
   16       10.866124   1.000000
   17       11.207381   1.000000
   18       11.862095   1.000035
   19       12.038186   1.002795
   20       12.561754   0.239313
   21       13.141372  -0.000025
   22       14.363318  -0.000000
   23       17.379620  -0.000000
   24       18.449521   0.000000
   25       21.770677   0.000000
   26       23.274170   0.000000
   27       23.657970   0.000000
   28       24.656560   0.000000
   29       25.927972   0.000000
   30       26.705923   0.000000
 
  0.0000000E+00  0.2727273E+00  0.9090909E-01  0.3005259E-02
    1        2.774546   1.000000
    2        4.602706   1.000000
    3        5.348841   1.000000
    4        5.512630   1.000000
    5        5.817983   1.000000
    6        5.961197   1.000000
    7        6.187550   1.000000
    8        8.152068   1.000000
    9        8.924594   1.000000
   10        8.965713   1.000000
   11        9.607820   1.000000
   12        9.772212   1.000000
   13        9.802659   1.000000
   14       10.424179   1.000000
   15       10.529519   1.000000
   16       11.240372   1.000000
   17       11.455315   1.000000
   18       11.602756   1.000000
   19       12.072798   1.005356
   20       12.404533   0.847084
   21       12.872734  -0.011503
   22       12.965761  -0.002236
   23       17.712588  -0.000000
   24       18.431745   0.000000
   25       21.621142   0.000000
   26       23.187207   0.000000
   27       24.419761   0.000000
   28       24.583762   0.000000
   29       25.757343   0.000000
   30       26.433896   0.000000
 
  0.9090909E-01  0.0000000E+00  0.2727273E+00  0.3005259E-02
    1        2.785902   1.000000
    2        4.621252   1.000000
    3        5.574050   1.000000
    4        5.685915   1.000000
    5        5.760817   1.000000
    6        5.901426   1.000000
    7        5.982117   1.000000
    8        7.875129   1.000000
    9        8.862270   1.000000
   10        9.063953   1.000000
   11        9.608660   1.000000
   12        9.707075   1.000000
   13        9.810302   1.000000
   14       10.325347   1.000000
   15       10.534992   1.000000
   16       10.726331   1.000000
   17       11.498363   1.000000
   18       11.994196   1.001101
   19       12.062499   1.004448
   20       12.479871   0.569866
   21       12.639218   0.035379
   22       13.718687  -0.000000
   23       17.574036  -0.000000
   24       18.458148   0.000000
   25       21.277943   0.000000
   26       23.578009   0.000000
   27       24.480587   0.000000
   28       24.659281   0.000000
   29       25.728119   0.000000
   30       26.168980   0.000000
 
 -0.9090909E-01  0.2727273E+00  0.0000000E+00  0.3005259E-02
    1        2.776221   1.000000
    2        4.592387   1.000000
    3        5.361333   1.000000
    4        5.514652   1.000000
    5        5.835435   1.000000
    6        5.907222   1.000000
    7        6.202299   1.000000