 vasp.6.2.0 18Jan21 (build Mar 17 2021 09:06:54) complex                        
  
 executed on             LinuxIFC date 2021.06.11  11:35:48
 serial version


--------------------------------------------------------------------------------------------------------


 INCAR:
   ENCUT = 270.000000
   SIGMA = 0.200000
   EDIFF = 1.00e-06
   GGA = PE
   PREC = normal
   IBRION = 1
   ICHARG = 1
   ISIF = 2
   ISMEAR = 1
   KPAR = 1
   NBANDS = 30
   NSW = 0
   NCORE = 1
   LCHARG = .TRUE.

 POTCAR:    PAW_PBE Pd 04Jan2005                  
 POTCAR:    PAW_PBE Ir 06Sep2000                  
 POTCAR:    PAW_PBE Pt 04Feb2005                  
 POTCAR:    PAW_PBE Cu 22Jun2005                  
 POTCAR:    PAW_PBE Pd 04Jan2005                  
   SHA256 =  dd6f6f02930356371984e2b707ff5e456046761dc76b07c1eba30abd15eb3c39 Pd/POTCAR             
   COPYR  = (c) Copyright 04Jan2005 Georg Kresse                                                    
   COPYR  = This file is part of the software VASP. Any use, copying, and all other rights are regul
   COPYR  = If you do not have a valid VASP license, you may not use, copy or distribute this file. 
   VRHFIN =Pd : s1 d9                                                                               
   LEXCH  = PE                                                                                      
   EATOM  =   809.7530 eV,   59.5152 Ry                                                             
                                                                                                    
   TITEL  = PAW_PBE Pd 04Jan2005                                                                    
   LULTRA =        F    use ultrasoft PP ?                                                          
   IUNSCR =        1    unscreen: 0-lin 1-nonlin 2-no                                               
   RPACOR =    2.000    partial core radius                                                         
   POMASS =  106.420; ZVAL   =   10.000    mass and valenz                                          
   RCORE  =    2.600    outmost cutoff radius                                                       
   RWIGS  =    2.710; RWIGS  =    1.434    wigner-seitz radius (au A)                               
   ENMAX  =  250.925; ENMIN  =  188.194 eV                                                          
   ICORE  =        3    local potential                                                             
   LCOR   =        T    correct aug charges                                                         
   LPAW   =        T    paw PP                                                                      
   EAUG   =  416.230                                                                                
   DEXC   =    0.000                                                                                
   RMAX   =    2.653    core radius for proj-oper                                                   
   RAUG   =    1.300    factor for augmentation sphere                                              
   RDEP   =    2.734    radius for radial grids                                                     
   RDEPT  =    2.103    core radius for aug-charge                                                  
                                                                                                    
   Atomic configuration                                                                             
   12 entries                                                                                       
     n  l   j            E        occ.                                                              
     1  0  0.50    -24164.6631   2.0000                                                             
     2  0  0.50     -3530.9218   2.0000                                                             
     2  1  1.50     -3165.6822   6.0000                                                             
     3  0  0.50      -639.4577   2.0000                                                             
     3  1  1.50      -519.4532   6.0000                                                             
     3  2  2.50      -328.9757  10.0000                                                             
     4  0  0.50       -88.7014   2.0000                                                             
     4  1  1.50       -54.4540   6.0000                                                             
     4  2  2.50        -6.6878   9.0000                                                             
     5  0  0.50        -4.3543   1.0000                                                             
     5  1  0.50        -1.3606   0.0000                                                             
     4  3  2.50        -1.3606   0.0000                                                             
   Description                                                                                      
     l       E           TYP  RCUT    TYP  RCUT                                                     
     2     -6.6878251     23  2.400                                                                 
     2     -8.0484077     23  2.400                                                                 
     0     -4.3542939     23  2.400                                                                 
     0      4.3406793     23  2.400                                                                 
     1     -4.0817478     23  2.600                                                                 
     1     15.8380318     23  2.600                                                                 
     3     -4.0817478     23  2.400                                                                 
  local pseudopotential read in
  partial core-charges read in
  partial kinetic energy density read in
  atomic valenz-charges read in
  non local Contribution for L=           2  read in
    real space projection operators read in
  non local Contribution for L=           2  read in
    real space projection operators read in
  non local Contribution for L=           0  read in
    real space projection operators read in
  non local Contribution for L=           0  read in
    real space projection operators read in
  non local Contribution for L=           1  read in
    real space projection operators read in
  non local Contribution for L=           1  read in
    real space projection operators read in
    PAW grid and wavefunctions read in
 
   number of l-projection  operators is LMAX  =           6
   number of lm-projection operators is LMMAX =          18
 
 POTCAR:    PAW_PBE Ir 06Sep2000                  
   SHA256 =  7c6af8d4d487b237782eb51e6f62977b27a1da78c3c96acd1cebefd6c308f120 Ir/POTCAR             
   COPYR  = (c) Copyright 06Sep2000 Georg Kresse                                                    
   COPYR  = This file is part of the software VASP. Any use, copying, and all other rights are regul
   COPYR  = If you do not have a valid VASP license, you may not use, copy or distribute this file. 
   VRHFIN =Ir: s1d8                                                                                 
   LEXCH  = PE                                                                                      
   EATOM  =   560.1833 eV,   41.1723 Ry                                                             
                                                                                                    
   TITEL  = PAW_PBE Ir 06Sep2000                                                                    
   LULTRA =        F    use ultrasoft PP ?                                                          
   IUNSCR =        1    unscreen: 0-lin 1-nonlin 2-no                                               
   RPACOR =    2.250    partial core radius                                                         
   POMASS =  192.220; ZVAL   =    9.000    mass and valenz                                          
   RCORE  =    2.600    outmost cutoff radius                                                       
   RWIGS  =    2.690; RWIGS  =    1.423    wigner-seitz radius (au A)                               
   ENMAX  =  210.864; ENMIN  =  158.148 eV                                                          
   RCLOC  =    1.857    cutoff for local pot                                                        
   LCOR   =        T    correct aug charges                                                         
   LPAW   =        T    paw PP                                                                      
   EAUG   =  318.962                                                                                
   DEXC   =    0.000                                                                                
   RMAX   =    2.667    core radius for proj-oper                                                   
   RAUG   =    1.300    factor for augmentation sphere                                              
   RDEP   =    2.748    radius for radial grids                                                     
   RDEPT  =    2.300    core radius for aug-charge                                                  
                                                                                                    
   Atomic configuration                                                                             
   16 entries                                                                                       
     n  l   j            E        occ.                                                              
     1  0  0.50    -76100.0449   2.0000                                                             
     2  0  0.50    -13308.1683   2.0000                                                             
     2  1  1.50    -11558.0021   6.0000                                                             
     3  0  0.50     -3110.7274   2.0000                                                             
     3  1  1.50     -2599.2109   6.0000                                                             
     3  2  2.50     -2037.1515  10.0000                                                             
     4  0  0.50      -661.6001   2.0000                                                             
     4  1  1.50      -493.8981   6.0000                                                             
     4  2  2.50      -288.1909  10.0000                                                             
     4  3  3.50       -59.5718  14.0000                                                             
     5  0  0.50       -95.3879   2.0000                                                             
     5  1  1.50       -52.2747   6.0000                                                             
     5  2  2.50        -5.4180   8.0000                                                             
     6  0  0.50        -5.5479   1.0000                                                             
     6  1  1.50        -6.8029   0.0000                                                             
     5  3  2.50        -1.3606   0.0000                                                             
   Description                                                                                      
     l       E           TYP  RCUT    TYP  RCUT                                                     
     2     -5.4179967     23  2.600                                                                 
     2     -6.7785793     23  2.600                                                                 
     0     -5.5478636     23  2.600                                                                 
     0      2.2542272     23  2.600                                                                 
     1     -2.7211652     23  2.600                                                                 
     1     20.4087390     23  2.600                                                                 
  local pseudopotential read in
  partial core-charges read in
  partial kinetic energy density read in
  atomic valenz-charges read in
  non local Contribution for L=           2  read in
    real space projection operators read in
  non local Contribution for L=           2  read in
    real space projection operators read in
  non local Contribution for L=           0  read in
    real space projection operators read in
  non local Contribution for L=           0  read in
    real space projection operators read in
  non local Contribution for L=           1  read in
    real space projection operators read in
  non local Contribution for L=           1  read in
    real space projection operators read in
    PAW grid and wavefunctions read in
 
   number of l-projection  operators is LMAX  =           6
   number of lm-projection operators is LMMAX =          18
 
 POTCAR:    PAW_PBE Pt 04Feb2005                  
   SHA256 =  3ed90460adef76debcff1cfb73ee1349b515b1a3db03439735b44de3a8db7dc8 Pt/POTCAR             
   COPYR  = (c) Copyright 04Feb2005 Georg Kresse                                                    
   COPYR  = This file is part of the software VASP. Any use, copying, and all other rights are regul
   COPYR  = If you do not have a valid VASP license, you may not use, copy or distribute this file. 
   VRHFIN =Pt: s1d9                                                                                 
   LEXCH  = PE                                                                                      
   EATOM  =   729.1176 eV,   53.5886 Ry                                                             
                                                                                                    
   TITEL  = PAW_PBE Pt 04Feb2005                                                                    
   LULTRA =        F    use ultrasoft PP ?                                                          
   IUNSCR =        1    unscreen: 0-lin 1-nonlin 2-no                                               
   RPACOR =    2.330    partial core radius                                                         
   POMASS =  195.080; ZVAL   =   10.000    mass and valenz                                          
   RCORE  =    2.600    outmost cutoff radius                                                       
   RWIGS  =    2.750; RWIGS  =    1.455    wigner-seitz radius (au A)                               
   ENMAX  =  230.283; ENMIN  =  172.712 eV                                                          
   ICORE  =        3    local potential                                                             
   LCOR   =        T    correct aug charges                                                         
   LPAW   =        T    paw PP                                                                      
   EAUG   =  358.966                                                                                
   DEXC   =    0.000                                                                                
   RMAX   =    2.658    core radius for proj-oper                                                   
   RAUG   =    1.300    factor for augmentation sphere                                              
   RDEP   =    2.761    radius for radial grids                                                     
   RDEPT  =    2.203    core radius for aug-charge                                                  
                                                                                                    
   Atomic configuration                                                                             
   16 entries                                                                                       
     n  l   j            E        occ.                                                              
     1  0  0.50    -78401.1885   2.0000                                                             
     2  0  0.50    -13770.7750   2.0000                                                             
     2  1  1.50    -11931.0468   6.0000                                                             
     3  0  0.50     -3234.7234   2.0000                                                             
     3  1  1.50     -2699.2216   6.0000                                                             
     3  2  2.50     -2119.5714  10.0000                                                             
     4  0  0.50      -695.1528   2.0000                                                             
     4  1  1.50      -519.6034   6.0000                                                             
     4  2  2.50      -306.6786  10.0000                                                             
     4  3  3.50       -70.1041  14.0000                                                             
     5  0  0.50      -101.7747   2.0000                                                             
     5  1  1.50       -55.9873   6.0000                                                             
     5  2  2.50        -6.1423   9.0000                                                             
     6  0  0.50        -5.6573   1.0000                                                             
     6  1  1.50        -6.8029   0.0000                                                             
     5  3  2.50        -1.3606   0.0000                                                             
   Description                                                                                      
     l       E           TYP  RCUT    TYP  RCUT                                                     
     2     -6.1423404     23  2.500                                                                 
     2     -7.5029230     23  2.500                                                                 
     0     -5.6573207     23  2.500                                                                 
     0      0.7416693     23  2.500                                                                 
     1     -2.7211652     23  2.600                                                                 
     1     20.4087390     23  2.600                                                                 
     3     -1.3605826     23  2.500                                                                 
  local pseudopotential read in
  partial core-charges read in
  partial kinetic energy density read in
  atomic valenz-charges read in
  non local Contribution for L=           2  read in
    real space projection operators read in
  non local Contribution for L=           2  read in
    real space projection operators read in
  non local Contribution for L=           0  read in
    real space projection operators read in
  non local Contribution for L=           0  read in
    real space projection operators read in
  non local Contribution for L=           1  read in
    real space projection operators read in
  non local Contribution for L=           1  read in
    real space projection operators read in
    PAW grid and wavefunctions read in
 
   number of l-projection  operators is LMAX  =           6
   number of lm-projection operators is LMMAX =          18
 
 POTCAR:    PAW_PBE Cu 22Jun2005                  
   SHA256 =  0e71e558f37a4e8407882b4609ceaae59938afaad9ced71dfe8490308a0ab630 Cu/POTCAR             
   COPYR  = (c) Copyright 22Jun2005 Georg Kresse                                                    
   COPYR  = This file is part of the software VASP. Any use, copying, and all other rights are regul
   COPYR  = If you do not have a valid VASP license, you may not use, copy or distribute this file. 
   VRHFIN =Cu: d10 p1                                                                               
   LEXCH  = PE                                                                                      
   EATOM  =  1390.9808 eV,  102.2342 Ry                                                             
                                                                                                    
   TITEL  = PAW_PBE Cu 22Jun2005                                                                    
   LULTRA =        F    use ultrasoft PP ?                                                          
   IUNSCR =        1    unscreen: 0-lin 1-nonlin 2-no                                               
   RPACOR =    2.000    partial core radius                                                         
   POMASS =   63.546; ZVAL   =   11.000    mass and valenz                                          
   RCORE  =    2.300    outmost cutoff radius                                                       
   RWIGS  =    2.200; RWIGS  =    1.164    wigner-seitz radius (au A)                               
   ENMAX  =  295.446; ENMIN  =  221.585 eV                                                          
   ICORE  =        3    local potential                                                             
   LCOR   =        T    correct aug charges                                                         
   LPAW   =        T    paw PP                                                                      
   EAUG   =  586.980                                                                                
   DEXC   =    0.000                                                                                
   RMAX   =    2.344    core radius for proj-oper                                                   
   RAUG   =    1.300    factor for augmentation sphere                                              
   RDEP   =    2.302    radius for radial grids                                                     
   RDEPT  =    1.771    core radius for aug-charge                                                  
                                                                                                    
   Atomic configuration                                                                             
    9 entries                                                                                       
     n  l   j            E        occ.                                                              
     1  0  0.50     -8850.2468   2.0000                                                             
     2  0  0.50     -1062.3498   2.0000                                                             
     2  1  1.50      -916.8226   6.0000                                                             
     3  0  0.50      -114.6929   2.0000                                                             
     3  1  1.50       -72.1325   6.0000                                                             
     3  2  2.50        -5.0394  10.0000                                                             
     4  0  0.50        -4.6097   1.0000                                                             
     4  1  0.50        -4.0817   0.0000                                                             
     4  3  2.50        -1.3606   0.0000                                                             
   Description                                                                                      
     l       E           TYP  RCUT    TYP  RCUT                                                     
     2     -5.0393973     23  2.200                                                                 
     2     10.8846608     23  2.200                                                                 
     0     -4.6097109     23  2.200                                                                 
     0      8.2520465     23  2.200                                                                 
     1     -2.7211652     23  2.200                                                                 
     1     21.7055443     23  2.200                                                                 
     3      2.7211652     23  2.300                                                                 
  local pseudopotential read in
  partial core-charges read in
  partial kinetic energy density read in
  atomic valenz-charges read in
  non local Contribution for L=           2  read in
    real space projection operators read in
  non local Contribution for L=           2  read in
    real space projection operators read in
  non local Contribution for L=           0  read in
    real space projection operators read in
  non local Contribution for L=           0  read in
    real space projection operators read in
  non local Contribution for L=           1  read in
    real space projection operators read in
  non local Contribution for L=           1  read in
    real space projection operators read in
    PAW grid and wavefunctions read in
 
   number of l-projection  operators is LMAX  =           6
   number of lm-projection operators is LMMAX =          18
 
  PAW_PBE Pd 04Jan2005                  :
 energy of atom  1       EATOM= -809.7530
 kinetic energy error for atom=    0.0525 (will be added to EATOM!!)
  PAW_PBE Ir 06Sep2000                  :
 energy of atom  2       EATOM= -560.1833
 kinetic energy error for atom=    0.0351 (will be added to EATOM!!)
  PAW_PBE Pt 04Feb2005                  :
 energy of atom  3       EATOM= -729.1176
 kinetic energy error for atom=    0.0526 (will be added to EATOM!!)
  PAW_PBE Cu 22Jun2005                  :
 energy of atom  4       EATOM=-1390.9808
 kinetic energy error for atom=    0.1077 (will be added to EATOM!!)
 
 
 POSCAR: Pd Ir Pt Cu
  positions in cartesian coordinates
  No initial velocities read in
 exchange correlation table for  LEXCH =        8
   RHO(1)=    0.500       N(1)  =     2000
   RHO(2)=  100.500       N(2)  =     4000
 


--------------------------------------------------------------------------------------------------------


 ion  position               nearest neighbor table
   1  0.000  0.000  0.000-   2 2.57   3 2.57   4 2.57   3 2.57   4 2.57   2 2.57   4 2.57   4 2.57
                             2 2.57   3 2.57   3 2.57   2 2.57
   2  0.500  0.500  0.000-   1 2.57   3 2.57   4 2.57   3 2.57   4 2.57   1 2.57   3 2.57   3 2.57
                             1 2.57   4 2.57   4 2.57   1 2.57
   3  0.500  0.000  0.500-   1 2.57   2 2.57   4 2.57   1 2.57   2 2.57   2 2.57   4 2.57   2 2.57
                             1 2.57   4 2.57   1 2.57   4 2.57
   4  0.000  0.500  0.500-   1 2.57   2 2.57   3 2.57   1 2.57   2 2.57   1 2.57   3 2.57   1 2.57
                             2 2.57   3 2.57   2 2.57   3 2.57
 
  LATTYP: Found a simple cubic cell.
 ALAT       =     3.6350000000
  
  Lattice vectors:
  
 A1 = (   3.6350000000,   0.0000000000,   0.0000000000)
 A2 = (   0.0000000000,   3.6350000000,   0.0000000000)
 A3 = (   0.0000000000,   0.0000000000,   3.6350000000)


Analysis of symmetry for initial positions (statically):
=====================================================================
 Subroutine PRICEL returns:
 Original cell was already a primitive cell.
 

 Routine SETGRP: Setting up the symmetry group for a 
 simple cubic supercell.


 Subroutine GETGRP returns: Found  8 space group operations
 (whereof  8 operations were pure point group operations)
 out of a pool of 48 trial point group operations.


The static configuration has the point symmetry D_2h.


Analysis of symmetry for dynamics (positions and initial velocities):
=====================================================================
 Subroutine PRICEL returns:
 Original cell was already a primitive cell.
 

 Routine SETGRP: Setting up the symmetry group for a 
 simple cubic supercell.


 Subroutine GETGRP returns: Found  8 space group operations
 (whereof  8 operations were pure point group operations)
 out of a pool of 48 trial point group operations.


The dynamic configuration has the point symmetry D_2h.


 Subroutine INISYM returns: Found  8 space group operations
 (whereof  8 operations are pure point group operations),
 and found     1 'primitive' translations


----------------------------------------------------------------------------------------

                                     Primitive cell                                     

  volume of cell :      48.0301

  direct lattice vectors                    reciprocal lattice vectors
     3.635000000  0.000000000  0.000000000     0.275103164  0.000000000  0.000000000
     0.000000000  3.635000000  0.000000000     0.000000000  0.275103164  0.000000000
     0.000000000  0.000000000  3.635000000     0.000000000  0.000000000  0.275103164

  length of vectors
     3.635000000  3.635000000  3.635000000     0.275103164  0.275103164  0.275103164

  position of ions in fractional coordinates (direct lattice)
     0.000000000  0.000000000  0.000000000
     0.500000000  0.500000000  0.000000000
     0.500000000  0.000000000  0.500000000
     0.000000000  0.500000000  0.500000000

  ion indices of the primitive-cell ions
   primitive index   ion index
                 1           1
                 2           2
                 3           3
                 4           4

----------------------------------------------------------------------------------------

 
 
 KPOINTS: KPOINTS created by Atomic Simulation Env

Automatic generation of k-mesh.
 Grid dimensions read from file:
 generate k-points for:   11   11   11

 Generating k-lattice:

  Cartesian coordinates                     Fractional coordinates (reciprocal lattice)
     0.025009379  0.000000000  0.000000000     0.090909091  0.000000000  0.000000000
     0.000000000  0.025009379  0.000000000     0.000000000  0.090909091  0.000000000
     0.000000000  0.000000000  0.025009379     0.000000000  0.000000000  0.090909091

  Length of vectors
     0.025009379  0.025009379  0.025009379

  Shift w.r.t. Gamma in fractional coordinates (k-lattice)
     0.000000000  0.000000000  0.000000000

 
 Subroutine IBZKPT returns following result:
 ===========================================
 
 Found    216 irreducible k-points:
 
 Following reciprocal coordinates:
            Coordinates               Weight
  0.000000  0.000000  0.000000      1.000000
  0.090909  0.000000  0.000000      2.000000
  0.000000  0.090909  0.000000      2.000000
  0.000000  0.000000  0.090909      2.000000
  0.181818  0.000000  0.000000      2.000000
  0.000000  0.181818  0.000000      2.000000
  0.000000  0.000000  0.181818      2.000000
  0.272727  0.000000  0.000000      2.000000
  0.000000  0.272727  0.000000      2.000000
  0.000000  0.000000  0.272727      2.000000
  0.363636  0.000000  0.000000      2.000000
  0.000000  0.363636  0.000000      2.000000
  0.000000  0.000000  0.363636      2.000000
  0.454545  0.000000  0.000000      2.000000
  0.000000  0.454545  0.000000      2.000000
  0.000000  0.000000  0.454545      2.000000
  0.090909  0.090909  0.000000      4.000000
  0.000000  0.090909  0.090909      4.000000
  0.090909  0.000000  0.090909      4.000000
  0.181818  0.090909  0.000000      4.000000
  0.000000  0.181818  0.090909      4.000000
  0.090909  0.000000  0.181818      4.000000
 -0.090909  0.181818  0.000000      4.000000
 -0.181818  0.000000  0.090909      4.000000
  0.000000  0.090909  0.181818      4.000000
  0.272727  0.090909  0.000000      4.000000
  0.000000  0.272727  0.090909      4.000000
  0.090909  0.000000  0.272727      4.000000
 -0.090909  0.272727  0.000000      4.000000
 -0.272727  0.000000  0.090909      4.000000
  0.000000  0.090909  0.272727      4.000000
  0.363636  0.090909  0.000000      4.000000
  0.000000  0.363636  0.090909      4.000000
  0.090909  0.000000  0.363636      4.000000
 -0.090909  0.363636  0.000000      4.000000
 -0.363636  0.000000  0.090909      4.000000
  0.000000  0.090909  0.363636      4.000000
  0.454545  0.090909  0.000000      4.000000
  0.000000  0.454545  0.090909      4.000000
  0.090909  0.000000  0.454545      4.000000
 -0.090909  0.454545  0.000000      4.000000
 -0.454545  0.000000  0.090909      4.000000
  0.000000  0.090909  0.454545      4.000000
  0.181818  0.181818  0.000000      4.000000
  0.000000  0.181818  0.181818      4.000000
  0.181818  0.000000  0.181818      4.000000
  0.272727  0.181818  0.000000      4.000000
  0.000000  0.272727  0.181818      4.000000
  0.181818  0.000000  0.272727      4.000000
 -0.181818  0.272727  0.000000      4.000000
 -0.272727  0.000000  0.181818      4.000000
  0.000000  0.181818  0.272727      4.000000
  0.363636  0.181818  0.000000      4.000000
  0.000000  0.363636  0.181818      4.000000
  0.181818  0.000000  0.363636      4.000000
 -0.181818  0.363636  0.000000      4.000000
 -0.363636  0.000000  0.181818      4.000000
  0.000000  0.181818  0.363636      4.000000
  0.454545  0.181818  0.000000      4.000000
  0.000000  0.454545  0.181818      4.000000
  0.181818  0.000000  0.454545      4.000000
 -0.181818  0.454545  0.000000      4.000000
 -0.454545  0.000000  0.181818      4.000000
  0.000000  0.181818  0.454545      4.000000
  0.272727  0.272727  0.000000      4.000000
  0.000000  0.272727  0.272727      4.000000
  0.272727  0.000000  0.272727      4.000000
  0.363636  0.272727  0.000000      4.000000
  0.000000  0.363636  0.272727      4.000000
  0.272727  0.000000  0.363636      4.000000
 -0.272727  0.363636  0.000000      4.000000
 -0.363636  0.000000  0.272727      4.000000
  0.000000  0.272727  0.363636      4.000000
  0.454545  0.272727  0.000000      4.000000
  0.000000  0.454545  0.272727      4.000000
  0.272727  0.000000  0.454545      4.000000
 -0.272727  0.454545  0.000000      4.000000
 -0.454545  0.000000  0.272727      4.000000
  0.000000  0.272727  0.454545      4.000000
  0.363636  0.363636  0.000000      4.000000
  0.000000  0.363636  0.363636      4.000000
  0.363636  0.000000  0.363636      4.000000
  0.454545  0.363636  0.000000      4.000000
  0.000000  0.454545  0.363636      4.000000
  0.363636  0.000000  0.454545      4.000000
 -0.363636  0.454545  0.000000      4.000000
 -0.454545  0.000000  0.363636      4.000000
  0.000000  0.363636  0.454545      4.000000
  0.454545  0.454545  0.000000      4.000000
  0.000000  0.454545  0.454545      4.000000
  0.454545  0.000000  0.454545      4.000000
  0.090909  0.090909  0.090909      8.000000
  0.181818  0.090909  0.090909      8.000000
  0.090909  0.181818  0.090909      8.000000
  0.090909  0.090909  0.181818      8.000000
  0.272727  0.090909  0.090909      8.000000
  0.090909  0.272727  0.090909      8.000000
  0.090909  0.090909  0.272727      8.000000
  0.363636  0.090909  0.090909      8.000000
  0.090909  0.363636  0.090909      8.000000
  0.090909  0.090909  0.363636      8.000000
  0.454545  0.090909  0.090909      8.000000
  0.090909  0.454545  0.090909      8.000000
  0.090909  0.090909  0.454545      8.000000
  0.181818  0.181818  0.090909      8.000000
  0.090909  0.181818  0.181818      8.000000
  0.181818  0.090909  0.181818      8.000000
  0.272727  0.181818  0.090909      8.000000
  0.090909  0.272727  0.181818      8.000000
  0.181818  0.090909  0.272727      8.000000
 -0.181818  0.272727  0.090909      8.000000
 -0.272727  0.090909  0.181818      8.000000
 -0.090909  0.181818  0.272727      8.000000
  0.363636  0.181818  0.090909      8.000000
  0.090909  0.363636  0.181818      8.000000
  0.181818  0.090909  0.363636      8.000000
 -0.181818  0.363636  0.090909      8.000000
 -0.363636  0.090909  0.181818      8.000000
 -0.090909  0.181818  0.363636      8.000000
  0.454545  0.181818  0.090909      8.000000
  0.090909  0.454545  0.181818      8.000000
  0.181818  0.090909  0.454545      8.000000
 -0.181818  0.454545  0.090909      8.000000
 -0.454545  0.090909  0.181818      8.000000
 -0.090909  0.181818  0.454545      8.000000
  0.272727  0.272727  0.090909      8.000000
  0.090909  0.272727  0.272727      8.000000
  0.272727  0.090909  0.272727      8.000000
  0.363636  0.272727  0.090909      8.000000
  0.090909  0.363636  0.272727      8.000000
  0.272727  0.090909  0.363636      8.000000
 -0.272727  0.363636  0.090909      8.000000
 -0.363636  0.090909  0.272727      8.000000
 -0.090909  0.272727  0.363636      8.000000
  0.454545  0.272727  0.090909      8.000000
  0.090909  0.454545  0.272727      8.000000
  0.272727  0.090909  0.454545      8.000000
 -0.272727  0.454545  0.090909      8.000000
 -0.454545  0.090909  0.272727      8.000000
 -0.090909  0.272727  0.454545      8.000000
  0.363636  0.363636  0.090909      8.000000
  0.090909  0.363636  0.363636      8.000000
  0.363636  0.090909  0.363636      8.000000
  0.454545  0.363636  0.090909      8.000000
  0.090909  0.454545  0.363636      8.000000
  0.363636  0.090909  0.454545      8.000000
 -0.363636  0.454545  0.090909      8.000000
 -0.454545  0.090909  0.363636      8.000000
 -0.090909  0.363636  0.454545      8.000000
  0.454545  0.454545  0.090909      8.000000
  0.090909  0.454545  0.454545      8.000000
  0.454545  0.090909  0.454545      8.000000
  0.181818  0.181818  0.181818      8.000000
  0.272727  0.181818  0.181818      8.000000
  0.181818  0.272727  0.181818      8.000000
  0.181818  0.181818  0.272727      8.000000
  0.363636  0.181818  0.181818      8.000000
  0.181818  0.363636  0.181818      8.000000
  0.181818  0.181818  0.363636      8.000000
  0.454545  0.181818  0.181818      8.000000
  0.181818  0.454545  0.181818      8.000000
  0.181818  0.181818  0.454545      8.000000
  0.272727  0.272727  0.181818      8.000000
  0.181818  0.272727  0.272727      8.000000
  0.272727  0.181818  0.272727      8.000000
  0.363636  0.272727  0.181818      8.000000
  0.181818  0.363636  0.272727      8.000000
  0.272727  0.181818  0.363636      8.000000
 -0.272727  0.363636  0.181818      8.000000
 -0.363636  0.181818  0.272727      8.000000
 -0.181818  0.272727  0.363636      8.000000
  0.454545  0.272727  0.181818      8.000000
  0.181818  0.454545  0.272727      8.000000
  0.272727  0.181818  0.454545      8.000000
 -0.272727  0.454545  0.181818      8.000000
 -0.454545  0.181818  0.272727      8.000000
 -0.181818  0.272727  0.454545      8.000000
  0.363636  0.363636  0.181818      8.000000
  0.181818  0.363636  0.363636      8.000000
  0.363636  0.181818  0.363636      8.000000
  0.454545  0.363636  0.181818      8.000000
  0.181818  0.454545  0.363636      8.000000
  0.363636  0.181818  0.454545      8.000000
 -0.363636  0.454545  0.181818      8.000000
 -0.454545  0.181818  0.363636      8.000000
 -0.181818  0.363636  0.454545      8.000000
  0.454545  0.454545  0.181818      8.000000
  0.181818  0.454545  0.454545      8.000000
  0.454545  0.181818  0.454545      8.000000
  0.272727  0.272727  0.272727      8.000000
  0.363636  0.272727  0.272727      8.000000
  0.272727  0.363636  0.272727      8.000000
  0.272727  0.272727  0.363636      8.000000
  0.454545  0.272727  0.272727      8.000000
  0.272727  0.454545  0.272727      8.000000
  0.272727  0.272727  0.454545      8.000000
  0.363636  0.363636  0.272727      8.000000
  0.272727  0.363636  0.363636      8.000000
  0.363636  0.272727  0.363636      8.000000
  0.454545  0.363636  0.272727      8.000000
  0.272727  0.454545  0.363636      8.000000
  0.363636  0.272727  0.454545      8.000000
 -0.363636  0.454545  0.272727      8.000000
 -0.454545  0.272727  0.363636      8.000000
 -0.272727  0.363636  0.454545      8.000000
  0.454545  0.454545  0.272727      8.000000
  0.272727  0.454545  0.454545      8.000000
  0.454545  0.272727  0.454545      8.000000
  0.363636  0.363636  0.363636      8.000000
  0.454545  0.363636  0.363636      8.000000
  0.363636  0.454545  0.363636      8.000000
  0.363636  0.363636  0.454545      8.000000
  0.454545  0.454545  0.363636      8.000000
  0.363636  0.454545  0.454545      8.000000
  0.454545  0.363636  0.454545      8.000000
  0.454545  0.454545  0.454545      8.000000
 
 Following cartesian coordinates:
            Coordinates               Weight
  0.000000  0.000000  0.000000      1.000000
  0.025009  0.000000  0.000000      2.000000
  0.000000  0.025009  0.000000      2.000000
  0.000000  0.000000  0.025009      2.000000
  0.050019  0.000000  0.000000      2.000000
  0.000000  0.050019  0.000000      2.000000
  0.000000  0.000000  0.050019      2.000000
  0.075028  0.000000  0.000000      2.000000
  0.000000  0.075028  0.000000      2.000000
  0.000000  0.000000  0.075028      2.000000
  0.100038  0.000000  0.000000      2.000000
  0.000000  0.100038  0.000000      2.000000
  0.000000  0.000000  0.100038      2.000000
  0.125047  0.000000  0.000000      2.000000
  0.000000  0.125047  0.000000      2.000000
  0.000000  0.000000  0.125047      2.000000
  0.025009  0.025009  0.000000      4.000000
  0.000000  0.025009  0.025009      4.000000
  0.025009  0.000000  0.025009      4.000000
  0.050019  0.025009  0.000000      4.000000
  0.000000  0.050019  0.025009      4.000000
  0.025009  0.000000  0.050019      4.000000
 -0.025009  0.050019  0.000000      4.000000
 -0.050019  0.000000  0.025009      4.000000
  0.000000  0.025009  0.050019      4.000000
  0.075028  0.025009  0.000000      4.000000
  0.000000  0.075028  0.025009      4.000000
  0.025009  0.000000  0.075028      4.000000
 -0.025009  0.075028  0.000000      4.000000
 -0.075028  0.000000  0.025009      4.000000
  0.000000  0.025009  0.075028      4.000000
  0.100038  0.025009  0.000000      4.000000
  0.000000  0.100038  0.025009      4.000000
  0.025009  0.000000  0.100038      4.000000
 -0.025009  0.100038  0.000000      4.000000
 -0.100038  0.000000  0.025009      4.000000
  0.000000  0.025009  0.100038      4.000000
  0.125047  0.025009  0.000000      4.000000
  0.000000  0.125047  0.025009      4.000000
  0.025009  0.000000  0.125047      4.000000
 -0.025009  0.125047  0.000000      4.000000
 -0.125047  0.000000  0.025009      4.000000
  0.000000  0.025009  0.125047      4.000000
  0.050019  0.050019  0.000000      4.000000
  0.000000  0.050019  0.050019      4.000000
  0.050019  0.000000  0.050019      4.000000
  0.075028  0.050019  0.000000      4.000000
  0.000000  0.075028  0.050019      4.000000
  0.050019  0.000000  0.075028      4.000000
 -0.050019  0.075028  0.000000      4.000000
 -0.075028  0.000000  0.050019      4.000000
  0.000000  0.050019  0.075028      4.000000
  0.100038  0.050019  0.000000      4.000000
  0.000000  0.100038  0.050019      4.000000
  0.050019  0.000000  0.100038      4.000000
 -0.050019  0.100038  0.000000      4.000000
 -0.100038  0.000000  0.050019      4.000000
  0.000000  0.050019  0.100038      4.000000
  0.125047  0.050019  0.000000      4.000000
  0.000000  0.125047  0.050019      4.000000
  0.050019  0.000000  0.125047      4.000000
 -0.050019  0.125047  0.000000      4.000000
 -0.125047  0.000000  0.050019      4.000000
  0.000000  0.050019  0.125047      4.000000
  0.075028  0.075028  0.000000      4.000000
  0.000000  0.075028  0.075028      4.000000
  0.075028  0.000000  0.075028      4.000000
  0.100038  0.075028  0.000000      4.000000
  0.000000  0.100038  0.075028      4.000000
  0.075028  0.000000  0.100038      4.000000
 -0.075028  0.100038  0.000000      4.000000
 -0.100038  0.000000  0.075028      4.000000
  0.000000  0.075028  0.100038      4.000000
  0.125047  0.075028  0.000000      4.000000
  0.000000  0.125047  0.075028      4.000000
  0.075028  0.000000  0.125047      4.000000
 -0.075028  0.125047  0.000000      4.000000
 -0.125047  0.000000  0.075028      4.000000
  0.000000  0.075028  0.125047      4.000000
  0.100038  0.100038  0.000000      4.000000
  0.000000  0.100038  0.100038      4.000000
  0.100038  0.000000  0.100038      4.000000
  0.125047  0.100038  0.000000      4.000000
  0.000000  0.125047  0.100038      4.000000
  0.100038  0.000000  0.125047      4.000000
 -0.100038  0.125047  0.000000      4.000000
 -0.125047  0.000000  0.100038      4.000000
  0.000000  0.100038  0.125047      4.000000
  0.125047  0.125047  0.000000      4.000000
  0.000000  0.125047  0.125047      4.000000
  0.125047  0.000000  0.125047      4.000000
  0.025009  0.025009  0.025009      8.000000
  0.050019  0.025009  0.025009      8.000000
  0.025009  0.050019  0.025009      8.000000
  0.025009  0.025009  0.050019      8.000000
  0.075028  0.025009  0.025009      8.000000
  0.025009  0.075028  0.025009      8.000000
  0.025009  0.025009  0.075028      8.000000
  0.100038  0.025009  0.025009      8.000000
  0.025009  0.100038  0.025009      8.000000
  0.025009  0.025009  0.100038      8.000000
  0.125047  0.025009  0.025009      8.000000
  0.025009  0.125047  0.025009      8.000000
  0.025009  0.025009  0.125047      8.000000
  0.050019  0.050019  0.025009      8.000000
  0.025009  0.050019  0.050019      8.000000
  0.050019  0.025009  0.050019      8.000000
  0.075028  0.050019  0.025009      8.000000
  0.025009  0.075028  0.050019      8.000000
  0.050019  0.025009  0.075028      8.000000
 -0.050019  0.075028  0.025009      8.000000
 -0.075028  0.025009  0.050019      8.000000
 -0.025009  0.050019  0.075028      8.000000
  0.100038  0.050019  0.025009      8.000000
  0.025009  0.100038  0.050019      8.000000
  0.050019  0.025009  0.100038      8.000000
 -0.050019  0.100038  0.025009      8.000000
 -0.100038  0.025009  0.050019      8.000000
 -0.025009  0.050019  0.100038      8.000000
  0.125047  0.050019  0.025009      8.000000
  0.025009  0.125047  0.050019      8.000000
  0.050019  0.025009  0.125047      8.000000
 -0.050019  0.125047  0.025009      8.000000
 -0.125047  0.025009  0.050019      8.000000
 -0.025009  0.050019  0.125047      8.000000
  0.075028  0.075028  0.025009      8.000000
  0.025009  0.075028  0.075028      8.000000
  0.075028  0.025009  0.075028      8.000000
  0.100038  0.075028  0.025009      8.000000
  0.025009  0.100038  0.075028      8.000000
  0.075028  0.025009  0.100038      8.000000
 -0.075028  0.100038  0.025009      8.000000
 -0.100038  0.025009  0.075028      8.000000
 -0.025009  0.075028  0.100038      8.000000
  0.125047  0.075028  0.025009      8.000000
  0.025009  0.125047  0.075028      8.000000
  0.075028  0.025009  0.125047      8.000000
 -0.075028  0.125047  0.025009      8.000000
 -0.125047  0.025009  0.075028      8.000000
 -0.025009  0.075028  0.125047      8.000000
  0.100038  0.100038  0.025009      8.000000
  0.025009  0.100038  0.100038      8.000000
  0.100038  0.025009  0.100038      8.000000
  0.125047  0.100038  0.025009      8.000000
  0.025009  0.125047  0.100038      8.000000
  0.100038  0.025009  0.125047      8.000000
 -0.100038  0.125047  0.025009      8.000000
 -0.125047  0.025009  0.100038      8.000000
 -0.025009  0.100038  0.125047      8.000000
  0.125047  0.125047  0.025009      8.000000
  0.025009  0.125047  0.125047      8.000000
  0.125047  0.025009  0.125047      8.000000
  0.050019  0.050019  0.050019      8.000000
  0.075028  0.050019  0.050019      8.000000
  0.050019  0.075028  0.050019      8.000000
  0.050019  0.050019  0.075028      8.000000
  0.100038  0.050019  0.050019      8.000000
  0.050019  0.100038  0.050019      8.000000
  0.050019  0.050019  0.100038      8.000000
  0.125047  0.050019  0.050019      8.000000
  0.050019  0.125047  0.050019      8.000000
  0.050019  0.050019  0.125047      8.000000
  0.075028  0.075028  0.050019      8.000000
  0.050019  0.075028  0.075028      8.000000
  0.075028  0.050019  0.075028      8.000000
  0.100038  0.075028  0.050019      8.000000
  0.050019  0.100038  0.075028      8.000000
  0.075028  0.050019  0.100038      8.000000
 -0.075028  0.100038  0.050019      8.000000
 -0.100038  0.050019  0.075028      8.000000
 -0.050019  0.075028  0.100038      8.000000
  0.125047  0.075028  0.050019      8.000000
  0.050019  0.125047  0.075028      8.000000
  0.075028  0.050019  0.125047      8.000000
 -0.075028  0.125047  0.050019      8.000000
 -0.125047  0.050019  0.075028      8.000000
 -0.050019  0.075028  0.125047      8.000000
  0.100038  0.100038  0.050019      8.000000
  0.050019  0.100038  0.100038      8.000000
  0.100038  0.050019  0.100038      8.000000
  0.125047  0.100038  0.050019      8.000000
  0.050019  0.125047  0.100038      8.000000
  0.100038  0.050019  0.125047      8.000000
 -0.100038  0.125047  0.050019      8.000000
 -0.125047  0.050019  0.100038      8.000000
 -0.050019  0.100038  0.125047      8.000000
  0.125047  0.125047  0.050019      8.000000
  0.050019  0.125047  0.125047      8.000000
  0.125047  0.050019  0.125047      8.000000
  0.075028  0.075028  0.075028      8.000000
  0.100038  0.075028  0.075028      8.000000
  0.075028  0.100038  0.075028      8.000000
  0.075028  0.075028  0.100038      8.000000
  0.125047  0.075028  0.075028      8.000000
  0.075028  0.125047  0.075028      8.000000
  0.075028  0.075028  0.125047      8.000000
  0.100038  0.100038  0.075028      8.000000
  0.075028  0.100038  0.100038      8.000000
  0.100038  0.075028  0.100038      8.000000
  0.125047  0.100038  0.075028      8.000000
  0.075028  0.125047  0.100038      8.000000
  0.100038  0.075028  0.125047      8.000000
 -0.100038  0.125047  0.075028      8.000000
 -0.125047  0.075028  0.100038      8.000000
 -0.075028  0.100038  0.125047      8.000000
  0.125047  0.125047  0.075028      8.000000
  0.075028  0.125047  0.125047      8.000000
  0.125047  0.075028  0.125047      8.000000
  0.100038  0.100038  0.100038      8.000000
  0.125047  0.100038  0.100038      8.000000
  0.100038  0.125047  0.100038      8.000000
  0.100038  0.100038  0.125047      8.000000
  0.125047  0.125047  0.100038      8.000000
  0.100038  0.125047  0.125047      8.000000
  0.125047  0.100038  0.125047      8.000000
  0.125047  0.125047  0.125047      8.000000
 


--------------------------------------------------------------------------------------------------------




 Dimension of arrays:
   k-points           NKPTS =    216   k-points in BZ     NKDIM =    216   number of bands    NBANDS=     30
   number of dos      NEDOS =    301   number of ions     NIONS =      4
   non local maximal  LDIM  =      6   non local SUM 2l+1 LMDIM =     18
   total plane-waves  NPLWV =   4096
   max r-space proj   IRMAX =      1   max aug-charges    IRDMAX=   6366
   dimension x,y,z NGX =    16 NGY =   16 NGZ =   16
   dimension x,y,z NGXF=    32 NGYF=   32 NGZF=   32
   support grid    NGXF=    32 NGYF=   32 NGZF=   32
   ions per type =               1   1   1   1
   NGX,Y,Z   is equivalent  to a cutoff of   7.32,  7.32,  7.32 a.u.
   NGXF,Y,Z  is equivalent  to a cutoff of  14.64, 14.64, 14.64 a.u.

 SYSTEM =  unknown system                          
 POSCAR =  Pd Ir Pt Cu                             

 Startparameter for this run:
   NWRITE =      2    write-flag & timer
   PREC   = normal    normal or accurate (medium, high low for compatibility)
   ISTART =      0    job   : 0-new  1-cont  2-samecut
   ICHARG =      1    charge: 1-file 2-atom 10-const
   ISPIN  =      1    spin polarized calculation?
   LNONCOLLINEAR =      F non collinear calculations
   LSORBIT =      F    spin-orbit coupling
   INIWAV =      1    electr: 0-lowe 1-rand  2-diag
   LASPH  =      F    aspherical Exc in radial PAW
   METAGGA=      F    non-selfconsistent MetaGGA calc.

 Electronic Relaxation 1
   ENCUT  =  270.0 eV  19.84 Ry    4.45 a.u.   4.87  4.87  4.87*2*pi/ulx,y,z
   ENINI  =  270.0     initial cutoff
   ENAUG  =  587.0 eV  augmentation charge cutoff
   NELM   =     60;   NELMIN=  2; NELMDL= -5     # of ELM steps 
   EDIFF  = 0.1E-05   stopping-criterion for ELM
   LREAL  =      F    real-space projection
   NLSPLINE    = F    spline interpolate recip. space projectors
   LCOMPAT=      F    compatible to vasp.4.4
   GGA_COMPAT  = T    GGA compatible to vasp.4.4-vasp.4.6
   LMAXPAW     = -100 max onsite density
   LMAXMIX     =    2 max onsite mixed and CHGCAR
   VOSKOWN=      0    Vosko Wilk Nusair interpolation
   ROPT   =    0.00000   0.00000   0.00000   0.00000
 Ionic relaxation
   EDIFFG = 0.1E-04   stopping-criterion for IOM
   NSW    =      0    number of steps for IOM
   NBLOCK =      1;   KBLOCK =      1    inner block; outer block 
   IBRION =     -1    ionic relax: 0-MD 1-quasi-New 2-CG
   NFREE  =      0    steps in history (QN), initial steepest desc. (CG)
   ISIF   =      2    stress and relaxation
   IWAVPR =      0    prediction:  0-non 1-charg 2-wave 3-comb
   ISYM   =      2    0-nonsym 1-usesym 2-fastsym
   LCORR  =      T    Harris-Foulkes like correction to forces

   POTIM  = 0.5000    time-step for ionic-motion
   TEIN   =    0.0    initial temperature
   TEBEG  =    0.0;   TEEND  =   0.0 temperature during run
   SMASS  =  -3.00    Nose mass-parameter (am)
   estimated Nose-frequenzy (Omega)   =  0.10E-29 period in steps = 0.13E+47 mass=  -0.302E-27a.u.
   SCALEE = 1.0000    scale energy and forces
   NPACO  =    256;   APACO  = 16.0  distance and # of slots for P.C.
   PSTRESS=    0.0 pullay stress

  Mass of Ions in am
   POMASS = 106.42192.22195.08 63.55
  Ionic Valenz
   ZVAL   =  10.00  9.00 10.00 11.00
  Atomic Wigner-Seitz radii
   RWIGS  =  -1.00 -1.00 -1.00 -1.00
  virtual crystal weights 
   VCA    =   1.00  1.00  1.00  1.00
   NELECT =      40.0000    total number of electrons
   NUPDOWN=      -1.0000    fix difference up-down

 DOS related values:
   EMIN   =  10.00;   EMAX   =-10.00  energy-range for DOS
   EFERMI =   0.00
   ISMEAR =     1;   SIGMA  =   0.20  broadening in eV -4-tet -1-fermi 0-gaus

 Electronic relaxation 2 (details)
   IALGO  =     38    algorithm
   LDIAG  =      T    sub-space diagonalisation (order eigenvalues)
   LSUBROT=      F    optimize rotation matrix (better conditioning)
   TURBO    =      0    0=normal 1=particle mesh
   IRESTART =      0    0=no restart 2=restart with 2 vectors
   NREBOOT  =      0    no. of reboots
   NMIN     =      0    reboot dimension
   EREF     =   0.00    reference energy to select bands
   IMIX   =      4    mixing-type and parameters
     AMIX     =   0.40;   BMIX     =  1.00
     AMIX_MAG =   1.60;   BMIX_MAG =  1.00
     AMIN     =   0.10
     WC   =   100.;   INIMIX=   1;  MIXPRE=   1;  MAXMIX= -45

 Intra band minimization:
   WEIMIN = 0.0000     energy-eigenvalue tresh-hold
   EBREAK =  0.83E-08  absolut break condition
   DEPER  =   0.30     relativ break condition  

   TIME   =   0.40     timestep for ELM

  volume/ion in A,a.u.               =      12.01        81.03
  Fermi-wavevector in a.u.,A,eV,Ry     =   1.540247  2.910645 32.277935  2.372361
  Thomas-Fermi vector in A             =   2.646361
 
 Write flags
   LWAVE        =      T    write WAVECAR
   LDOWNSAMPLE  =      F    k-point downsampling of WAVECAR
   LCHARG       =      T    write CHGCAR
   LVTOT        =      F    write LOCPOT, total local potential
   LVHAR        =      F    write LOCPOT, Hartree potential only
   LELF         =      F    write electronic localiz. function (ELF)
   LORBIT       =      0    0 simple, 1 ext, 2 COOP (PROOUT), +10 PAW based schemes


 Dipole corrections
   LMONO  =      F    monopole corrections only (constant potential shift)
   LDIPOL =      F    correct potential (dipole corrections)
   IDIPOL =      0    1-x, 2-y, 3-z, 4-all directions 
   EPSILON=  1.0000000 bulk dielectric constant

 Exchange correlation treatment:
   GGA     =    PE    GGA type
   LEXCH   =     8    internal setting for exchange type
   VOSKOWN=      0    Vosko Wilk Nusair interpolation
   LHFCALC =     F    Hartree Fock is set to
   LHFONE  =     F    Hartree Fock one center treatment
   AEXX    =    0.0000 exact exchange contribution

 Linear response parameters
   LEPSILON=     F    determine dielectric tensor
   LRPA    =     F    only Hartree local field effects (RPA)
   LNABLA  =     F    use nabla operator in PAW spheres
   LVEL    =     F    velocity operator in full k-point grid
   LINTERFAST=   F  fast interpolation
   KINTER  =     0    interpolate to denser k-point grid
   CSHIFT  =0.1000    complex shift for real part using Kramers Kronig
   OMEGAMAX=  -1.0    maximum frequency
   DEG_THRESHOLD= 0.2000000E-02 threshold for treating states as degnerate
   RTIME   =   -0.100 relaxation time in fs
  (WPLASMAI=    0.000 imaginary part of plasma frequency in eV, 0.658/RTIME)
   DFIELD  = 0.0000000 0.0000000 0.0000000 field for delta impulse in time
 
 Orbital magnetization related:
   ORBITALMAG=     F  switch on orbital magnetization
   LCHIMAG   =     F  perturbation theory with respect to B field
   DQ        =  0.001000  dq finite difference perturbation B field
   LLRAUG    =     F  two centre corrections for induced B field



--------------------------------------------------------------------------------------------------------


 Static calculation
 charge density and potential will be updated during run
 non-spin polarized calculation
 Variant of blocked Davidson
 Davidson routine will perform the subspace rotation
 perform sub-space diagonalisation
    after iterative eigenvector-optimisation
 modified Broyden-mixing scheme, WC =      100.0
 initial mixing is a Kerker type mixing with AMIX =  0.4000 and BMIX =      1.0000
 Hartree-type preconditioning will be used
 using additional bands           10
 reciprocal scheme for non local part
 use partial core corrections
 calculate Harris-corrections to forces 
   (improved forces if not selfconsistent)
 use gradient corrections 
 use of overlap-Matrix (Vanderbilt PP)
 Methfessel and Paxton  Order N= 1 SIGMA  =   0.20


--------------------------------------------------------------------------------------------------------


  energy-cutoff  :      270.00
  volume of cell :       48.03
      direct lattice vectors                 reciprocal lattice vectors
     3.635000000  0.000000000  0.000000000     0.275103164  0.000000000  0.000000000
     0.000000000  3.635000000  0.000000000     0.000000000  0.275103164  0.000000000
     0.000000000  0.000000000  3.635000000     0.000000000  0.000000000  0.275103164

  length of vectors
     3.635000000  3.635000000  3.635000000     0.275103164  0.275103164  0.275103164


 
 k-points in units of 2pi/SCALE and weight: KPOINTS created by Atomic Simulation Env
   0.00000000  0.00000000  0.00000000       0.001
   0.02500938  0.00000000  0.00000000       0.002
   0.00000000  0.02500938  0.00000000       0.002
   0.00000000  0.00000000  0.02500938       0.002
   0.05001876  0.00000000  0.00000000       0.002
   0.00000000  0.05001876  0.00000000       0.002
   0.00000000  0.00000000  0.05001876       0.002
   0.07502814  0.00000000  0.00000000       0.002
   0.00000000  0.07502814  0.00000000       0.002
   0.00000000  0.00000000  0.07502814       0.002
   0.10003751  0.00000000  0.00000000       0.002
   0.00000000  0.10003751  0.00000000       0.002
   0.00000000  0.00000000  0.10003751       0.002
   0.12504689  0.00000000  0.00000000       0.002
   0.00000000  0.12504689  0.00000000       0.002
   0.00000000  0.00000000  0.12504689       0.002
   0.02500938  0.02500938  0.00000000       0.003
   0.00000000  0.02500938  0.02500938       0.003
   0.02500938  0.00000000  0.02500938       0.003
   0.05001876  0.02500938  0.00000000       0.003
   0.00000000  0.05001876  0.02500938       0.003
   0.02500938  0.00000000  0.05001876       0.003
  -0.02500938  0.05001876  0.00000000       0.003
  -0.05001876  0.00000000  0.02500938       0.003
   0.00000000  0.02500938  0.05001876       0.003
   0.07502814  0.02500938  0.00000000       0.003
   0.00000000  0.07502814  0.02500938       0.003
   0.02500938  0.00000000  0.07502814       0.003
  -0.02500938  0.07502814  0.00000000       0.003
  -0.07502814  0.00000000  0.02500938       0.003
   0.00000000  0.02500938  0.07502814       0.003
   0.10003751  0.02500938  0.00000000       0.003
   0.00000000  0.10003751  0.02500938       0.003
   0.02500938  0.00000000  0.10003751       0.003
  -0.02500938  0.10003751  0.00000000       0.003
  -0.10003751  0.00000000  0.02500938       0.003
   0.00000000  0.02500938  0.10003751       0.003
   0.12504689  0.02500938  0.00000000       0.003
   0.00000000  0.12504689  0.02500938       0.003
   0.02500938  0.00000000  0.12504689       0.003
  -0.02500938  0.12504689  0.00000000       0.003
  -0.12504689  0.00000000  0.02500938       0.003
   0.00000000  0.02500938  0.12504689       0.003
   0.05001876  0.05001876  0.00000000       0.003
   0.00000000  0.05001876  0.05001876       0.003
   0.05001876  0.00000000  0.05001876       0.003
   0.07502814  0.05001876  0.00000000       0.003
   0.00000000  0.07502814  0.05001876       0.003
   0.05001876  0.00000000  0.07502814       0.003
  -0.05001876  0.07502814  0.00000000       0.003
  -0.07502814  0.00000000  0.05001876       0.003
   0.00000000  0.05001876  0.07502814       0.003
   0.10003751  0.05001876  0.00000000       0.003
   0.00000000  0.10003751  0.05001876       0.003
   0.05001876  0.00000000  0.10003751       0.003
  -0.05001876  0.10003751  0.00000000       0.003
  -0.10003751  0.00000000  0.05001876       0.003
   0.00000000  0.05001876  0.10003751       0.003
   0.12504689  0.05001876  0.00000000       0.003
   0.00000000  0.12504689  0.05001876       0.003
   0.05001876  0.00000000  0.12504689       0.003
  -0.05001876  0.12504689  0.00000000       0.003
  -0.12504689  0.00000000  0.05001876       0.003
   0.00000000  0.05001876  0.12504689       0.003
   0.07502814  0.07502814  0.00000000       0.003
   0.00000000  0.07502814  0.07502814       0.003
   0.07502814  0.00000000  0.07502814       0.003
   0.10003751  0.07502814  0.00000000       0.003
   0.00000000  0.10003751  0.07502814       0.003
   0.07502814  0.00000000  0.10003751       0.003
  -0.07502814  0.10003751  0.00000000       0.003
  -0.10003751  0.00000000  0.07502814       0.003
   0.00000000  0.07502814  0.10003751       0.003
   0.12504689  0.07502814  0.00000000       0.003
   0.00000000  0.12504689  0.07502814       0.003
   0.07502814  0.00000000  0.12504689       0.003
  -0.07502814  0.12504689  0.00000000       0.003
  -0.12504689  0.00000000  0.07502814       0.003
   0.00000000  0.07502814  0.12504689       0.003
   0.10003751  0.10003751  0.00000000       0.003
   0.00000000  0.10003751  0.10003751       0.003
   0.10003751  0.00000000  0.10003751       0.003
   0.12504689  0.10003751  0.00000000       0.003
   0.00000000  0.12504689  0.10003751       0.003
   0.10003751  0.00000000  0.12504689       0.003
  -0.10003751  0.12504689  0.00000000       0.003
  -0.12504689  0.00000000  0.10003751       0.003
   0.00000000  0.10003751  0.12504689       0.003
   0.12504689  0.12504689  0.00000000       0.003
   0.00000000  0.12504689  0.12504689       0.003
   0.12504689  0.00000000  0.12504689       0.003
   0.02500938  0.02500938  0.02500938       0.006
   0.05001876  0.02500938  0.02500938       0.006
   0.02500938  0.05001876  0.02500938       0.006
   0.02500938  0.02500938  0.05001876       0.006
   0.07502814  0.02500938  0.02500938       0.006
   0.02500938  0.07502814  0.02500938       0.006
   0.02500938  0.02500938  0.07502814       0.006
   0.10003751  0.02500938  0.02500938       0.006
   0.02500938  0.10003751  0.02500938       0.006
   0.02500938  0.02500938  0.10003751       0.006
   0.12504689  0.02500938  0.02500938       0.006
   0.02500938  0.12504689  0.02500938       0.006
   0.02500938  0.02500938  0.12504689       0.006
   0.05001876  0.05001876  0.02500938       0.006
   0.02500938  0.05001876  0.05001876       0.006
   0.05001876  0.02500938  0.05001876       0.006
   0.07502814  0.05001876  0.02500938       0.006
   0.02500938  0.07502814  0.05001876       0.006
   0.05001876  0.02500938  0.07502814       0.006
  -0.05001876  0.07502814  0.02500938       0.006
  -0.07502814  0.02500938  0.05001876       0.006
  -0.02500938  0.05001876  0.07502814       0.006
   0.10003751  0.05001876  0.02500938       0.006
   0.02500938  0.10003751  0.05001876       0.006
   0.05001876  0.02500938  0.10003751       0.006
  -0.05001876  0.10003751  0.02500938       0.006
  -0.10003751  0.02500938  0.05001876       0.006
  -0.02500938  0.05001876  0.10003751       0.006
   0.12504689  0.05001876  0.02500938       0.006
   0.02500938  0.12504689  0.05001876       0.006
   0.05001876  0.02500938  0.12504689       0.006
  -0.05001876  0.12504689  0.02500938       0.006
  -0.12504689  0.02500938  0.05001876       0.006
  -0.02500938  0.05001876  0.12504689       0.006
   0.07502814  0.07502814  0.02500938       0.006
   0.02500938  0.07502814  0.07502814       0.006
   0.07502814  0.02500938  0.07502814       0.006
   0.10003751  0.07502814  0.02500938       0.006
   0.02500938  0.10003751  0.07502814       0.006
   0.07502814  0.02500938  0.10003751       0.006
  -0.07502814  0.10003751  0.02500938       0.006
  -0.10003751  0.02500938  0.07502814       0.006
  -0.02500938  0.07502814  0.10003751       0.006
   0.12504689  0.07502814  0.02500938       0.006
   0.02500938  0.12504689  0.07502814       0.006
   0.07502814  0.02500938  0.12504689       0.006
  -0.07502814  0.12504689  0.02500938       0.006
  -0.12504689  0.02500938  0.07502814       0.006
  -0.02500938  0.07502814  0.12504689       0.006
   0.10003751  0.10003751  0.02500938       0.006
   0.02500938  0.10003751  0.10003751       0.006
   0.10003751  0.02500938  0.10003751       0.006
   0.12504689  0.10003751  0.02500938       0.006
   0.02500938  0.12504689  0.10003751       0.006
   0.10003751  0.02500938  0.12504689       0.006
  -0.10003751  0.12504689  0.02500938       0.006
  -0.12504689  0.02500938  0.10003751       0.006
  -0.02500938  0.10003751  0.12504689       0.006
   0.12504689  0.12504689  0.02500938       0.006
   0.02500938  0.12504689  0.12504689       0.006
   0.12504689  0.02500938  0.12504689       0.006
   0.05001876  0.05001876  0.05001876       0.006
   0.07502814  0.05001876  0.05001876       0.006
   0.05001876  0.07502814  0.05001876       0.006
   0.05001876  0.05001876  0.07502814       0.006
   0.10003751  0.05001876  0.05001876       0.006
   0.05001876  0.10003751  0.05001876       0.006
   0.05001876  0.05001876  0.10003751       0.006
   0.12504689  0.05001876  0.05001876       0.006
   0.05001876  0.12504689  0.05001876       0.006
   0.05001876  0.05001876  0.12504689       0.006
   0.07502814  0.07502814  0.05001876       0.006
   0.05001876  0.07502814  0.07502814       0.006
   0.07502814  0.05001876  0.07502814       0.006
   0.10003751  0.07502814  0.05001876       0.006
   0.05001876  0.10003751  0.07502814       0.006
   0.07502814  0.05001876  0.10003751       0.006
  -0.07502814  0.10003751  0.05001876       0.006
  -0.10003751  0.05001876  0.07502814       0.006
  -0.05001876  0.07502814  0.10003751       0.006
   0.12504689  0.07502814  0.05001876       0.006
   0.05001876  0.12504689  0.07502814       0.006
   0.07502814  0.05001876  0.12504689       0.006
  -0.07502814  0.12504689  0.05001876       0.006
  -0.12504689  0.05001876  0.07502814       0.006
  -0.05001876  0.07502814  0.12504689       0.006
   0.10003751  0.10003751  0.05001876       0.006
   0.05001876  0.10003751  0.10003751       0.006
   0.10003751  0.05001876  0.10003751       0.006
   0.12504689  0.10003751  0.05001876       0.006
   0.05001876  0.12504689  0.10003751       0.006
   0.10003751  0.05001876  0.12504689       0.006
  -0.10003751  0.12504689  0.05001876       0.006
  -0.12504689  0.05001876  0.10003751       0.006
  -0.05001876  0.10003751  0.12504689       0.006
   0.12504689  0.12504689  0.05001876       0.006
   0.05001876  0.12504689  0.12504689       0.006
   0.12504689  0.05001876  0.12504689       0.006
   0.07502814  0.07502814  0.07502814       0.006
   0.10003751  0.07502814  0.07502814       0.006
   0.07502814  0.10003751  0.07502814       0.006
   0.07502814  0.07502814  0.10003751       0.006
   0.12504689  0.07502814  0.07502814       0.006
   0.07502814  0.12504689  0.07502814       0.006
   0.07502814  0.07502814  0.12504689       0.006
   0.10003751  0.10003751  0.07502814       0.006
   0.07502814  0.10003751  0.10003751       0.006
   0.10003751  0.07502814  0.10003751       0.006
   0.12504689  0.10003751  0.07502814       0.006
   0.07502814  0.12504689  0.10003751       0.006
   0.10003751  0.07502814  0.12504689       0.006
  -0.10003751  0.12504689  0.07502814       0.006
  -0.12504689  0.07502814  0.10003751       0.006
  -0.07502814  0.10003751  0.12504689       0.006
   0.12504689  0.12504689  0.07502814       0.006
   0.07502814  0.12504689  0.12504689       0.006
   0.12504689  0.07502814  0.12504689       0.006
   0.10003751  0.10003751  0.10003751       0.006
   0.12504689  0.10003751  0.10003751       0.006
   0.10003751  0.12504689  0.10003751       0.006
   0.10003751  0.10003751  0.12504689       0.006
   0.12504689  0.12504689  0.10003751       0.006
   0.10003751  0.12504689  0.12504689       0.006
   0.12504689  0.10003751  0.12504689       0.006
   0.12504689  0.12504689  0.12504689       0.006
 
 k-points in reciprocal lattice and weights: KPOINTS created by Atomic Simulation Env
   0.00000000  0.00000000  0.00000000       0.001
   0.09090909  0.00000000  0.00000000       0.002
   0.00000000  0.09090909  0.00000000       0.002
   0.00000000  0.00000000  0.09090909       0.002
   0.18181818  0.00000000  0.00000000       0.002
   0.00000000  0.18181818  0.00000000       0.002
   0.00000000  0.00000000  0.18181818       0.002
   0.27272727  0.00000000  0.00000000       0.002
   0.00000000  0.27272727  0.00000000       0.002
   0.00000000  0.00000000  0.27272727       0.002
   0.36363636  0.00000000  0.00000000       0.002
   0.00000000  0.36363636  0.00000000       0.002
   0.00000000  0.00000000  0.36363636       0.002
   0.45454545  0.00000000  0.00000000       0.002
   0.00000000  0.45454545  0.00000000       0.002
   0.00000000  0.00000000  0.45454545       0.002
   0.09090909  0.09090909  0.00000000       0.003
   0.00000000  0.09090909  0.09090909       0.003
   0.09090909  0.00000000  0.09090909       0.003
   0.18181818  0.09090909  0.00000000       0.003
   0.00000000  0.18181818  0.09090909       0.003
   0.09090909  0.00000000  0.18181818       0.003
  -0.09090909  0.18181818  0.00000000       0.003
  -0.18181818  0.00000000  0.09090909       0.003
   0.00000000  0.09090909  0.18181818       0.003
   0.27272727  0.09090909  0.00000000       0.003
   0.00000000  0.27272727  0.09090909       0.003
   0.09090909  0.00000000  0.27272727       0.003
  -0.09090909  0.27272727  0.00000000       0.003
  -0.27272727  0.00000000  0.09090909       0.003
   0.00000000  0.09090909  0.27272727       0.003
   0.36363636  0.09090909  0.00000000       0.003
   0.00000000  0.36363636  0.09090909       0.003
   0.09090909  0.00000000  0.36363636       0.003
  -0.09090909  0.36363636  0.00000000       0.003
  -0.36363636  0.00000000  0.09090909       0.003
   0.00000000  0.09090909  0.36363636       0.003
   0.45454545  0.09090909  0.00000000       0.003
   0.00000000  0.45454545  0.09090909       0.003
   0.09090909  0.00000000  0.45454545       0.003
  -0.09090909  0.45454545  0.00000000       0.003
  -0.45454545  0.00000000  0.09090909       0.003
   0.00000000  0.09090909  0.45454545       0.003
   0.18181818  0.18181818  0.00000000       0.003
   0.00000000  0.18181818  0.18181818       0.003
   0.18181818  0.00000000  0.18181818       0.003
   0.27272727  0.18181818  0.00000000       0.003
   0.00000000  0.27272727  0.18181818       0.003
   0.18181818  0.00000000  0.27272727       0.003
  -0.18181818  0.27272727  0.00000000       0.003
  -0.27272727  0.00000000  0.18181818       0.003
   0.00000000  0.18181818  0.27272727       0.003
   0.36363636  0.18181818  0.00000000       0.003
   0.00000000  0.36363636  0.18181818       0.003
   0.18181818  0.00000000  0.36363636       0.003
  -0.18181818  0.36363636  0.00000000       0.003
  -0.36363636  0.00000000  0.18181818       0.003
   0.00000000  0.18181818  0.36363636       0.003
   0.45454545  0.18181818  0.00000000       0.003
   0.00000000  0.45454545  0.18181818       0.003
   0.18181818  0.00000000  0.45454545       0.003
  -0.18181818  0.45454545  0.00000000       0.003
  -0.45454545  0.00000000  0.18181818       0.003
   0.00000000  0.18181818  0.45454545       0.003
   0.27272727  0.27272727  0.00000000       0.003
   0.00000000  0.27272727  0.27272727       0.003
   0.27272727  0.00000000  0.27272727       0.003
   0.36363636  0.27272727  0.00000000       0.003
   0.00000000  0.36363636  0.27272727       0.003
   0.27272727  0.00000000  0.36363636       0.003
  -0.27272727  0.36363636  0.00000000       0.003
  -0.36363636  0.00000000  0.27272727       0.003
   0.00000000  0.27272727  0.36363636       0.003
   0.45454545  0.27272727  0.00000000       0.003
   0.00000000  0.45454545  0.27272727       0.003
   0.27272727  0.00000000  0.45454545       0.003
  -0.27272727  0.45454545  0.00000000       0.003
  -0.45454545  0.00000000  0.27272727       0.003
   0.00000000  0.27272727  0.45454545       0.003
   0.36363636  0.36363636  0.00000000       0.003
   0.00000000  0.36363636  0.36363636       0.003
   0.36363636  0.00000000  0.36363636       0.003
   0.45454545  0.36363636  0.00000000       0.003
   0.00000000  0.45454545  0.36363636       0.003
   0.36363636  0.00000000  0.45454545       0.003
  -0.36363636  0.45454545  0.00000000       0.003
  -0.45454545  0.00000000  0.36363636       0.003
   0.00000000  0.36363636  0.45454545       0.003
   0.45454545  0.45454545  0.00000000       0.003
   0.00000000  0.45454545  0.45454545       0.003
   0.45454545  0.00000000  0.45454545       0.003
   0.09090909  0.09090909  0.09090909       0.006
   0.18181818  0.09090909  0.09090909       0.006
   0.09090909  0.18181818  0.09090909       0.006
   0.09090909  0.09090909  0.18181818       0.006
   0.27272727  0.09090909  0.09090909       0.006
   0.09090909  0.27272727  0.09090909       0.006
   0.09090909  0.09090909  0.27272727       0.006
   0.36363636  0.09090909  0.09090909       0.006
   0.09090909  0.36363636  0.09090909       0.006
   0.09090909  0.09090909  0.36363636       0.006
   0.45454545  0.09090909  0.09090909       0.006
   0.09090909  0.45454545  0.09090909       0.006
   0.09090909  0.09090909  0.45454545       0.006
   0.18181818  0.18181818  0.09090909       0.006
   0.09090909  0.18181818  0.18181818       0.006
   0.18181818  0.09090909  0.18181818       0.006
   0.27272727  0.18181818  0.09090909       0.006
   0.09090909  0.27272727  0.18181818       0.006
   0.18181818  0.09090909  0.27272727       0.006
  -0.18181818  0.27272727  0.09090909       0.006
  -0.27272727  0.09090909  0.18181818       0.006
  -0.09090909  0.18181818  0.27272727       0.006
   0.36363636  0.18181818  0.09090909       0.006
   0.09090909  0.36363636  0.18181818       0.006
   0.18181818  0.09090909  0.36363636       0.006
  -0.18181818  0.36363636  0.09090909       0.006
  -0.36363636  0.09090909  0.18181818       0.006
  -0.09090909  0.18181818  0.36363636       0.006
   0.45454545  0.18181818  0.09090909       0.006
   0.09090909  0.45454545  0.18181818       0.006
   0.18181818  0.09090909  0.45454545       0.006
  -0.18181818  0.45454545  0.09090909       0.006
  -0.45454545  0.09090909  0.18181818       0.006
  -0.09090909  0.18181818  0.45454545       0.006
   0.27272727  0.27272727  0.09090909       0.006
   0.09090909  0.27272727  0.27272727       0.006
   0.27272727  0.09090909  0.27272727       0.006
   0.36363636  0.27272727  0.09090909       0.006
   0.09090909  0.36363636  0.27272727       0.006
   0.27272727  0.09090909  0.36363636       0.006
  -0.27272727  0.36363636  0.09090909       0.006
  -0.36363636  0.09090909  0.27272727       0.006
  -0.09090909  0.27272727  0.36363636       0.006
   0.45454545  0.27272727  0.09090909       0.006
   0.09090909  0.45454545  0.27272727       0.006
   0.27272727  0.09090909  0.45454545       0.006
  -0.27272727  0.45454545  0.09090909       0.006
  -0.45454545  0.09090909  0.27272727       0.006
  -0.09090909  0.27272727  0.45454545       0.006
   0.36363636  0.36363636  0.09090909       0.006
   0.09090909  0.36363636  0.36363636       0.006
   0.36363636  0.09090909  0.36363636       0.006
   0.45454545  0.36363636  0.09090909       0.006
   0.09090909  0.45454545  0.36363636       0.006
   0.36363636  0.09090909  0.45454545       0.006
  -0.36363636  0.45454545  0.09090909       0.006
  -0.45454545  0.09090909  0.36363636       0.006
  -0.09090909  0.36363636  0.45454545       0.006
   0.45454545  0.45454545  0.09090909       0.006
   0.09090909  0.45454545  0.45454545       0.006
   0.45454545  0.09090909  0.45454545       0.006
   0.18181818  0.18181818  0.18181818       0.006
   0.27272727  0.18181818  0.18181818       0.006
   0.18181818  0.27272727  0.18181818       0.006
   0.18181818  0.18181818  0.27272727       0.006
   0.36363636  0.18181818  0.18181818       0.006
   0.18181818  0.36363636  0.18181818       0.006
   0.18181818  0.18181818  0.36363636       0.006
   0.45454545  0.18181818  0.18181818       0.006
   0.18181818  0.45454545  0.18181818       0.006
   0.18181818  0.18181818  0.45454545       0.006
   0.27272727  0.27272727  0.18181818       0.006
   0.18181818  0.27272727  0.27272727       0.006
   0.27272727  0.18181818  0.27272727       0.006
   0.36363636  0.27272727  0.18181818       0.006
   0.18181818  0.36363636  0.27272727       0.006
   0.27272727  0.18181818  0.36363636       0.006
  -0.27272727  0.36363636  0.18181818       0.006
  -0.36363636  0.18181818  0.27272727       0.006
  -0.18181818  0.27272727  0.36363636       0.006
   0.45454545  0.27272727  0.18181818       0.006
   0.18181818  0.45454545  0.27272727       0.006
   0.27272727  0.18181818  0.45454545       0.006
  -0.27272727  0.45454545  0.18181818       0.006
  -0.45454545  0.18181818  0.27272727       0.006
  -0.18181818  0.27272727  0.45454545       0.006
   0.36363636  0.36363636  0.18181818       0.006
   0.18181818  0.36363636  0.36363636       0.006
   0.36363636  0.18181818  0.36363636       0.006
   0.45454545  0.36363636  0.18181818       0.006
   0.18181818  0.45454545  0.36363636       0.006
   0.36363636  0.18181818  0.45454545       0.006
  -0.36363636  0.45454545  0.18181818       0.006
  -0.45454545  0.18181818  0.36363636       0.006
  -0.18181818  0.36363636  0.45454545       0.006
   0.45454545  0.45454545  0.18181818       0.006
   0.18181818  0.45454545  0.45454545       0.006
   0.45454545  0.18181818  0.45454545       0.006
   0.27272727  0.27272727  0.27272727       0.006
   0.36363636  0.27272727  0.27272727       0.006
   0.27272727  0.36363636  0.27272727       0.006
   0.27272727  0.27272727  0.36363636       0.006
   0.45454545  0.27272727  0.27272727       0.006
   0.27272727  0.45454545  0.27272727       0.006
   0.27272727  0.27272727  0.45454545       0.006
   0.36363636  0.36363636  0.27272727       0.006
   0.27272727  0.36363636  0.36363636       0.006
   0.36363636  0.27272727  0.36363636       0.006
   0.45454545  0.36363636  0.27272727       0.006
   0.27272727  0.45454545  0.36363636       0.006
   0.36363636  0.27272727  0.45454545       0.006
  -0.36363636  0.45454545  0.27272727       0.006
  -0.45454545  0.27272727  0.36363636       0.006
  -0.27272727  0.36363636  0.45454545       0.006
   0.45454545  0.45454545  0.27272727       0.006
   0.27272727  0.45454545  0.45454545       0.006
   0.45454545  0.27272727  0.45454545       0.006
   0.36363636  0.36363636  0.36363636       0.006
   0.45454545  0.36363636  0.36363636       0.006
   0.36363636  0.45454545  0.36363636       0.006
   0.36363636  0.36363636  0.45454545       0.006
   0.45454545  0.45454545  0.36363636       0.006
   0.36363636  0.45454545  0.45454545       0.006
   0.45454545  0.36363636  0.45454545       0.006
   0.45454545  0.45454545  0.45454545       0.006
 
 position of ions in fractional coordinates (direct lattice) 
   0.00000000  0.00000000  0.00000000
   0.50000000  0.50000000  0.00000000
[...]
      3       5.2413      2.00000
      4       5.5683      2.00000
      5       7.5940      2.00000
      6       7.6449      2.00000
      7       7.7955      2.00000
      8       8.5531      2.00000
      9       8.6669      2.00000
     10       8.7926      2.00000
     11       8.9199      2.00000
     12       9.1727      2.00000
     13       9.3457      2.00000
     14       9.3696      2.00000
     15       9.4954      2.00000
     16       9.8214      2.00000
     17      11.3189      2.00000
     18      11.6850      2.00000
     19      11.7287      2.00000
     20      12.3962      1.74170
     21      13.2813     -0.00000
     22      14.4090     -0.00000
     23      14.9517     -0.00000
     24      15.2915     -0.00000
     25      20.0483      0.00000
     26      20.2460      0.00000
     27      21.3439      0.00000
     28      23.5609      0.00000
     29      29.0028      0.00000
     30      29.1154      0.00000

 k-point   210 :       0.4545    0.3636    0.3636
  band No.  band energies     occupation 
      1       4.5140      2.00000
      2       4.5829      2.00000
      3       5.1543      2.00000
      4       5.3481      2.00000
      5       7.6185      2.00000
      6       7.8418      2.00000
      7       8.0437      2.00000
      8       8.4021      2.00000
      9       8.5274      2.00000
     10       8.8072      2.00000
     11       8.8635      2.00000
     12       9.0087      2.00000
     13       9.6873      2.00000
     14       9.7082      2.00000
     15       9.9389      2.00000
     16      10.1449      2.00000
     17      11.2697      2.00000
     18      11.8394      2.00003
     19      12.0849      2.01321
     20      12.5452      0.60079
     21      13.0735     -0.00035
     22      13.4457     -0.00000
     23      14.8675     -0.00000
     24      14.9342     -0.00000
     25      19.6931      0.00000
     26      20.4541      0.00000
     27      21.3846      0.00000
     28      22.8417      0.00000
     29      28.9677      0.00000
     30      29.1340      0.00000

 k-point   211 :       0.3636    0.4545    0.3636
  band No.  band energies     occupation 
      1       4.5207      2.00000
      2       4.6825      2.00000
      3       4.9107      2.00000
      4       5.4655      2.00000
      5       7.6150      2.00000
      6       7.9263      2.00000
      7       8.0072      2.00000
      8       8.3688      2.00000
      9       8.5494      2.00000
     10       8.7409      2.00000
     11       8.7716      2.00000
     12       9.1437      2.00000
     13       9.7030      2.00000
     14       9.7384      2.00000
     15       9.8287      2.00000
     16      10.0636      2.00000
     17      11.2836      2.00000
     18      11.9352      2.00053
     19      12.1879      2.05141
     20      12.4455      1.41589
     21      13.0996     -0.00017
     22      13.3543     -0.00000
     23      14.8927     -0.00000
     24      15.1802     -0.00000
     25      19.7117      0.00000
     26      20.1675      0.00000
     27      21.5161      0.00000
     28      22.7851      0.00000
     29      28.9435      0.00000
     30      29.1662      0.00000

 k-point   212 :       0.3636    0.3636    0.4545
  band No.  band energies     occupation 
      1       4.5182      2.00000
      2       4.6896      2.00000
      3       4.9340      2.00000
      4       5.4126      2.00000
      5       7.6741      2.00000
      6       7.7944      2.00000
      7       8.0401      2.00000
      8       8.3749      2.00000
      9       8.5591      2.00000
     10       8.7970      2.00000
     11       8.8545      2.00000
     12       9.0159      2.00000
     13       9.6081      2.00000
     14       9.8051      2.00000
     15       9.8406      2.00000
     16      10.2259      2.00000
     17      11.4049      2.00000
     18      11.7173      2.00000
     19      12.0866      2.01360
     20      12.4909      1.04677
     21      13.1279     -0.00008
     22      13.4307     -0.00000
     23      14.8852     -0.00000
     24      15.1143     -0.00000
     25      19.6714      0.00000
     26      20.2910      0.00000
     27      21.4118      0.00000
     28      22.8162      0.00000
     29      28.9168      0.00000
     30      29.1026      0.00000

 k-point   213 :       0.4545    0.4545    0.3636
  band No.  band energies     occupation 
      1       4.3886      2.00000
      2       4.6238      2.00000
      3       4.8352      2.00000
      4       5.2307      2.00000
      5       7.8643      2.00000
      6       7.9404      2.00000
      7       8.1158      2.00000
      8       8.2327      2.00000
      9       8.3989      2.00000
     10       8.6904      2.00000
     11       8.8237      2.00000
     12       9.0054      2.00000
     13      10.1800      2.00000
     14      10.2014      2.00000
     15      10.3884      2.00000
     16      10.5662      2.00000
     17      11.2884      2.00000
     18      12.0101      2.00313
     19      12.1596      2.03847
     20      12.7152     -0.06467
     21      12.9687     -0.00420
     22      13.2344     -0.00000
     23      14.1917     -0.00000
     24      14.4154     -0.00000
     25      19.8974      0.00000
     26      20.3644      0.00000
     27      20.8023      0.00000
     28      22.2725      0.00000
     29      28.8872      0.00000
     30      28.9615      0.00000

 k-point   214 :       0.3636    0.4545    0.4545
  band No.  band energies     occupation 
      1       4.3952      2.00000
      2       4.6416      2.00000
      3       4.7369      2.00000
      4       5.2542      2.00000
      5       7.7643      2.00000
      6       8.0367      2.00000
      7       8.1168      2.00000
      8       8.2711      2.00000
      9       8.3657      2.00000
     10       8.6879      2.00000
     11       8.8153      2.00000
     12       9.0094      2.00000
     13      10.1336      2.00000
     14      10.2406      2.00000
     15      10.2973      2.00000
     16      10.6158      2.00000
     17      11.3730      2.00000
     18      12.0053      2.00282
     19      12.2575      2.07063
     20      12.4863      1.08567
     21      12.9870     -0.00285
     22      13.0975     -0.00018
     23      14.4439     -0.00000
     24      14.7034     -0.00000
     25      19.8661      0.00000
     26      20.0604      0.00000
     27      20.8189      0.00000
     28      22.2958      0.00000
     29      28.7141      0.00000
     30      28.8560      0.00000

 k-point   215 :       0.4545    0.3636    0.4545
  band No.  band energies     occupation 
      1       4.3929      2.00000
      2       4.6252      2.00000
      3       4.8305      2.00000
      4       5.2059      2.00000
      5       7.7093      2.00000
      6       7.8977      2.00000
      7       8.2513      2.00000
      8       8.4018      2.00000
      9       8.4322      2.00000
     10       8.7254      2.00000
     11       8.8104      2.00000
     12       8.8917      2.00000
     13      10.0973      2.00000
     14      10.2029      2.00000
     15      10.3639      2.00000
     16      10.7476      2.00000
     17      11.3402      2.00000
     18      11.8651      2.00008
     19      11.9588      2.00096
     20      12.8486     -0.03195
     21      13.2864     -0.00000
     22      13.4698     -0.00000
     23      13.8258     -0.00000
     24      14.2604     -0.00000
     25      19.8739      0.00000
     26      20.4172      0.00000
     27      20.7676      0.00000
     28      22.2996      0.00000
     29      28.8140      0.00000
     30      28.8613      0.00000

 k-point   216 :       0.4545    0.4545    0.4545
  band No.  band energies     occupation 
      1       4.2300      2.00000
      2       4.5435      2.00000
      3       4.6211      2.00000
      4       5.0732      2.00000
      5       7.8232      2.00000
      6       7.9895      2.00000
      7       8.2284      2.00000
      8       8.2326      2.00000
      9       8.3526      2.00000
     10       8.7135      2.00000
     11       8.7711      2.00000
     12       8.9294      2.00000
     13      10.7637      2.00000
     14      10.8478      2.00000
     15      11.1171      2.00000
     16      11.3357      2.00000
     17      11.5498      2.00000
     18      11.9487      2.00075
     19      11.9730      2.00135
     20      12.6141      0.17066
     21      12.8975     -0.01571
     22      13.2229     -0.00000
     23      13.5463     -0.00000
     24      13.7918     -0.00000
     25      19.7253      0.00000
     26      19.9008      0.00000
     27      20.3193      0.00000
     28      21.9748      0.00000
     29      28.4455      0.00000
     30      28.6662      0.00000


--------------------------------------------------------------------------------------------------------


 soft charge-density along one line, spin component           1
         0         1         2         3         4         5         6         7         8         9
x    23.2157    0.0000   -1.2711    0.0000    0.1425    0.0000    0.1716    0.0000   -0.2776    0.0000
x    -0.0294    0.0000    0.0728    0.0000    0.0089    0.0000    0.0000    0.0000
y    23.2157    0.0000    1.3077    0.0000    0.1679    0.0000   -0.2572   -0.0000   -0.2729    0.0000
y     0.0176   -0.0000    0.0687   -0.0000    0.0011   -0.0000    0.0000    0.0000
z    23.2157    0.0000    0.3572    0.0000    0.1645    0.0000   -0.1122   -0.0000   -0.2777    0.0000
z     0.0101   -0.0000    0.0699   -0.0000   -0.0045    0.0000    0.0000    0.0000
 total charge-density along one line
x    40.0000    0.0000    3.8655    0.0000    9.4699   -0.0000    2.8151    0.0000    1.0555    0.0000
x     0.2465    0.0000    0.0795    0.0000    0.0017   -0.0000    0.0049   -0.0000    0.0027   -0.0000
x    -0.0010    0.0000   -0.0008   -0.0000    0.0006   -0.0000    0.0004    0.0000   -0.0004   -0.0000
x    -0.0001    0.0000    0.0004    0.0000
y    40.0000    0.0000   -1.0612    0.0000    9.5352    0.0000   -1.6931   -0.0000    1.0678    0.0000
y    -0.2123   -0.0000    0.0540   -0.0000    0.0274    0.0000    0.0037   -0.0000   -0.0063    0.0000
y    -0.0011   -0.0000    0.0016    0.0000    0.0006    0.0000   -0.0003    0.0000   -0.0004    0.0000
y     0.0000    0.0000    0.0004    0.0000
z    40.0000    0.0000   -2.7559    0.0000    9.5107    0.0000   -1.9073   -0.0000    1.0502    0.0000
z    -0.2337   -0.0000    0.0613   -0.0000    0.0143    0.0000    0.0042    0.0000   -0.0055   -0.0000
z    -0.0011   -0.0000    0.0018   -0.0000    0.0006    0.0000   -0.0006    0.0000   -0.0005    0.0000
z     0.0001   -0.0000    0.0004    0.0000
 
 pseudopotential strength for first ion, spin component:           1
 -1.431   0.000   0.000  -0.000  -0.000  -1.711   0.000   0.000
  0.000  -1.344  -0.000  -0.000  -0.000   0.000  -1.628  -0.000
  0.000  -0.000  -1.363   0.000  -0.004   0.000  -0.000  -1.646
 -0.000  -0.000   0.000  -1.421   0.000  -0.000  -0.000   0.000
 -0.000  -0.000  -0.004   0.000  -1.360  -0.000  -0.000  -0.003
 -1.711   0.000   0.000  -0.000  -0.000  -1.955   0.000   0.000
  0.000  -1.628  -0.000  -0.000  -0.000   0.000  -1.875  -0.000
  0.000  -0.000  -1.646   0.000  -0.003   0.000  -0.000  -1.893
 -0.000  -0.000   0.000  -1.701   0.000  -0.000  -0.000   0.000
 -0.000  -0.000  -0.003   0.000  -1.642  -0.000  -0.000  -0.003
  0.000   0.000  -0.006  -0.000   0.009   0.000   0.000  -0.006
  0.000   0.000  -0.010  -0.000   0.015   0.000   0.000  -0.010
  0.000   0.000   0.000   0.000   0.000   0.000   0.000   0.000
  0.000  -0.000   0.000   0.000   0.000   0.000  -0.000   0.000
 -0.000   0.000  -0.000   0.000   0.000  -0.000   0.000  -0.000
  0.000   0.000   0.000   0.000   0.000   0.000   0.000   0.000
  0.000  -0.000   0.000   0.000   0.000   0.000  -0.000   0.000
 -0.000   0.000  -0.000   0.000   0.000  -0.000   0.000  -0.000
 total augmentation occupancy for first ion, spin component:           1
  3.226   0.000  -0.000   0.000  -0.000  -2.870   0.000  -0.000   0.000   0.000   0.000   0.000   0.000   0.000   0.000   0.000
  0.000   5.650   0.000   0.000   0.000   0.000  -4.216   0.000   0.000   0.000   0.000   0.000   0.000   0.000   0.000   0.000
 -0.000   0.000   4.494   0.000  -0.930   0.000   0.000  -3.270   0.000   0.680   0.238  -0.044   0.000   0.000   0.000   0.000
  0.000  -0.000   0.000   4.569   0.000   0.000   0.000   0.000  -4.014   0.000   0.000   0.000   0.000   0.000   0.000   0.000
 -0.000   0.000  -0.930   0.000   6.310   0.000   0.000   0.680   0.000  -4.715  -0.551   0.125   0.000   0.000   0.000   0.000
 -2.870   0.000   0.000   0.000   0.000   4.194   0.000  -0.000   0.000   0.000   0.000  -0.000   0.000   0.000   0.000   0.000
  0.000  -4.216   0.000   0.000   0.000   0.000   4.660   0.000   0.000   0.000   0.000   0.000   0.000   0.000   0.000   0.000
  0.000   0.000  -3.270   0.000   0.680  -0.000   0.000   3.875   0.000  -0.490  -0.211   0.021   0.000   0.000   0.000   0.000
  0.000   0.000   0.000  -4.014   0.000   0.000   0.000   0.000   5.153   0.000   0.000   0.000   0.000   0.000   0.000   0.000
  0.000   0.000   0.680   0.000  -4.715   0.000   0.000  -0.490   0.000   5.018   0.454  -0.083   0.000   0.000   0.000   0.000
  0.000   0.000   0.238   0.000  -0.551   0.000   0.000  -0.211   0.000   0.454   2.795  -0.484   0.000   0.000   0.000   0.000
  0.000   0.000  -0.044   0.000   0.125   0.000   0.000   0.021   0.000  -0.083  -0.484   0.092   0.000   0.000   0.000   0.000
  0.000   0.000   0.000   0.000   0.000   0.000   0.000   0.000   0.000   0.000   0.000   0.000   0.414   0.000  -0.000  -0.020
  0.000   0.000   0.000   0.000   0.000   0.000   0.000   0.000   0.000   0.000   0.000   0.000   0.000   0.407   0.000   0.000
  0.000   0.000   0.000   0.000   0.000   0.000   0.000   0.000   0.000   0.000   0.000   0.000  -0.000   0.000   0.478   0.000
  0.000   0.000   0.000   0.000   0.000   0.000   0.000   0.000   0.000   0.000   0.000   0.000  -0.020   0.000  -0.000   0.001
  0.000   0.000   0.000   0.000   0.000   0.000   0.000   0.000   0.000   0.000   0.000   0.000   0.000  -0.022   0.000   0.000
  0.000   0.000   0.000   0.000   0.000   0.000   0.000   0.000   0.000   0.000   0.000   0.000   0.000   0.000  -0.023   0.000


------------------------ aborting loop because EDIFF is reached ----------------------------------------


    CHARGE:  cpu time    0.1692: real time    0.1692
    FORLOC:  cpu time    0.0014: real time    0.0014
    FORNL :  cpu time    0.7247: real time    0.7247
    STRESS:  cpu time    1.2147: real time    1.2148
    FORCOR:  cpu time    0.0089: real time    0.0089
    FORHAR:  cpu time    0.0026: real time    0.0026
    MIXING:  cpu time    0.0005: real time    0.0005

  FORCE on cell =-STRESS in cart. coord.  units (eV):
  Direction    XX          YY          ZZ          XY          YZ          ZX
  --------------------------------------------------------------------------------------
  Alpha Z   294.32395   294.32395   294.32395
  Ewald   -1215.67993 -1210.09319 -1215.67993     0.00000    -0.00000     0.00000
  Hartree   166.48449   179.70742   171.40207    -0.00000    -0.00000    -0.00000
  E(xc)    -206.29740  -206.26005  -206.27845    -0.00000     0.00000     0.00000
  Local     226.48665   210.58307   224.34105     0.00000     0.00000     0.00000
  n-local    -7.20103    -4.95806    -6.73414     3.56867     8.03762     4.16396
  augment   259.40209   258.00836   258.72890    -0.00000     0.00000    -0.00000
  Kinetic   500.35975   497.25386   497.75207     0.69093     1.92465     1.20573
  Fock        0.00000     0.00000     0.00000     0.00000     0.00000     0.00000
  -------------------------------------------------------------------------------------
  Total      17.87856    18.56536    17.85552     0.00000     0.00000     0.00000
  in kB     596.38945   619.29934   595.62072     0.00000     0.00000     0.00000
  external pressure =      603.77 kB  Pullay stress =        0.00 kB


 VOLUME and BASIS-vectors are now :
 -----------------------------------------------------------------------------
  energy-cutoff  :      270.00
  volume of cell :       48.03
      direct lattice vectors                 reciprocal lattice vectors
     3.635000000  0.000000000  0.000000000     0.275103164  0.000000000  0.000000000
     0.000000000  3.635000000  0.000000000     0.000000000  0.275103164  0.000000000
     0.000000000  0.000000000  3.635000000     0.000000000  0.000000000  0.275103164

  length of vectors
     3.635000000  3.635000000  3.635000000     0.275103164  0.275103164  0.275103164


 FORCES acting on ions
    electron-ion (+dipol)            ewald-force                    non-local-force                 convergence-correction
 -----------------------------------------------------------------------------------------------
   -.206E-13 0.120E-13 0.672E-14   0.867E-14 -.106E-13 -.539E-14   0.197E-22 0.176E-22 -.348E-23   -.248E-13 0.371E-14 0.427E-14
   0.117E-14 0.341E-13 0.286E-14   0.109E-14 -.104E-14 -.382E-14   -.751E-24 -.267E-25 0.655E-23   -.115E-13 0.464E-14 -.359E-14
   0.259E-13 0.275E-14 0.625E-13   0.405E-14 0.203E-14 0.701E-14   0.236E-23 -.104E-22 0.390E-23   -.225E-13 0.723E-14 0.105E-13
   -.368E-13 0.292E-12 0.291E-12   -.111E-13 0.108E-13 0.211E-14   -.116E-23 -.970E-23 0.794E-23   -.880E-13 0.479E-13 0.587E-13
 -----------------------------------------------------------------------------------------------
   -.304E-13 0.341E-12 0.363E-12   0.269E-14 0.119E-14 -.871E-16   0.202E-22 -.254E-23 0.149E-22   -.147E-12 0.635E-13 0.699E-13
 
 
 POSITION                                       TOTAL-FORCE (eV/Angst)
 -----------------------------------------------------------------------------------
      0.00000      0.00000      0.00000         0.000000      0.000000     -0.000000
      1.81750      1.81750      0.00000         0.000000      0.000000     -0.000000
      1.81750      0.00000      1.81750         0.000000      0.000000      0.000000
      0.00000      1.81750      1.81750        -0.000000     -0.000000     -0.000000
 -----------------------------------------------------------------------------------
    total drift:                               -0.000000      0.000000      0.000000


--------------------------------------------------------------------------------------------------------



  FREE ENERGIE OF THE ION-ELECTRON SYSTEM (eV)
  ---------------------------------------------------
  free  energy   TOTEN  =       -21.89427107 eV

  energy  without entropy=      -21.89842708  energy(sigma->0) =      -21.89565641
 


--------------------------------------------------------------------------------------------------------


    POTLOK:  cpu time    0.0119: real time    0.0119


--------------------------------------------------------------------------------------------------------


 writing wavefunctions
     LOOP+:  cpu time   50.9503: real time   50.9711
    4ORBIT:  cpu time    0.0000: real time    0.0000

 total amount of memory used by VASP MPI-rank0   152878. kBytes
=======================================================================

   base      :      30000. kBytes
   nonl-proj :      61493. kBytes
   grid      :       2641. kBytes
   one-center:         62. kBytes
   wavefun   :      58682. kBytes
 
  
  
 General timing and accounting informations for this job:
 ========================================================
  
                  Total CPU time used (sec):       51.443
                            User time (sec):       51.363
                          System time (sec):        0.080
                         Elapsed time (sec):       51.453
  
                   Maximum memory used (kb):      164500.
                   Average memory used (kb):          N/A
  
                          Minor page faults:        34718
                          Major page faults:            0
                 Voluntary context switches:           27
