unknown system                          
   1.00000000000000     
     3.443320    0.000000    0.000000
     0.000000    3.443320    0.000000
     0.000000    0.000000    3.443320
   Cu
     4
Direct
  0.000000  0.000000  0.000000
  0.500000  0.500000  0.000000
  0.500000  0.000000  0.500000
  0.000000  0.500000  0.500000
 
   32   32   32
  715.12      678.10      577.72      440.85      298.98      177.65      91.291      42.287      22.325      16.243    
  12.660      10.381      9.0648      8.3491      7.9221      7.6280      7.5097      7.6280      7.9221      8.3491    
  9.0648      10.381      12.660      16.243      22.325      42.287      91.291      177.65      298.98      440.85    
  577.72      678.10      678.10      642.86      547.32      417.08      282.21      167.18      85.783      40.077    
  21.767      16.071      12.593      10.393      9.1247      8.4350      8.0237      7.7413      7.6280      7.7413    
  8.0237      8.4350      9.1247      10.393      12.593      16.071      21.767      40.077      85.783      167.18    
  282.21      417.08      547.32      642.86      577.72      547.32      464.90      352.70      236.97      139.20    
  71.296      34.444      20.401      15.587      12.409      10.424      9.2819      8.6557      8.2794      8.0237    
  7.9221      8.0237      8.2794      8.6557      9.2819      10.424      12.409      15.587      20.401      34.444    
  71.296      139.20      236.97      352.70      464.90      547.32      440.85      417.08      352.70      265.40    
  176.22      102.36      52.930      27.782      18.846      14.885      12.163      10.490      9.5252      8.9855    
  8.6557      8.4350      8.3491      8.4350      8.6557      8.9855      9.5252      10.490      12.163      14.885    
  18.846      27.782      52.930      102.36      176.22      265.40      352.70      417.08      298.98      282.21    
  236.97      176.22      115.37      66.816      36.379      22.423      17.352      14.107      11.955      10.665    
  9.9315      9.5252      9.2819      9.1247      9.0648      9.1247      9.2819      9.5252      9.9315      10.665    
  11.955      14.107      17.352      22.423      36.379      66.816      115.37      176.22      236.97      282.21    
  177.65      167.18      139.20      102.36      66.816      40.258      25.328      19.178      15.847      13.427    
  11.918      11.080      10.665      10.490      10.424      10.393      10.381      10.393      10.424      10.490    
  10.665      11.080      11.918      13.427      15.847      19.178      25.328      40.258      66.816      102.36    
  139.20      167.18      91.291      85.783      71.296      52.930      36.379      25.328      19.884      16.885    
  14.552      13.021      12.209      11.918      11.955      12.163      12.409      12.593      12.660      12.593    
  12.409      12.163      11.955      11.918      12.209      13.021      14.552      16.885      19.884      25.328    
  36.379      52.930      71.296      85.783      42.287      40.077      34.444      27.782      22.423      19.178    
  16.885      14.978      13.683      13.057      13.021      13.427      14.107      14.885      15.587      16.071    
  16.243      16.071      15.587      14.885      14.107      13.427      13.021      13.057      13.683      14.978    
  16.885      19.178      22.423      27.782      34.444      40.077      22.325      21.767      20.401      18.846    
  17.352      15.847      14.552      13.683      13.378      13.683      14.552      15.847      17.352      18.846    
  20.401      21.767      22.325      21.767      20.401      18.846      17.352      15.847      14.552      13.683    
  13.378      13.683      14.552      15.847      17.352      18.846      20.401      21.767      16.243      16.071    
  15.587      14.885      14.107      13.427      13.021      13.057      13.683      14.978      16.885      19.178    
  22.423      27.782      34.444      40.077      42.287      40.077      34.444      27.782      22.423      19.178    
  16.885      14.978      13.683      13.057      13.021      13.427      14.107      14.885      15.587      16.071    
  12.660      12.593      12.409      12.163      11.955      11.918      12.209      13.021      14.552      16.885    
  19.884      25.328      36.379      52.930      71.296      85.783      91.291      85.783      71.296      52.930    
  36.379      25.328      19.884      16.885      14.552      13.021      12.209      11.918      11.955      12.163    
  12.409      12.593      10.381      10.393      10.424      10.490      10.665      11.080      11.918      13.427    
  15.847      19.178      25.328      40.258      66.816      102.36      139.20      167.18      177.65      167.18    
  139.20      102.36      66.816      40.258      25.328      19.178      15.847      13.427      11.918      11.080    
  10.665      10.490      10.424      10.393      9.0648      9.1247      9.2819      9.5252      9.9315      10.665    
  11.955      14.107      17.352      22.423      36.379      66.816      115.37      176.22      236.97      282.21    
  298.98      282.21      236.97      176.22      115.37      66.816      36.379      22.423      17.352      14.107    
  11.955      10.665      9.9315      9.5252      9.2819      9.1247      8.3491      8.4350      8.6557      8.9855    
  9.5252      10.490      12.163      14.885      18.846      27.782      52.930      102.36      176.22      265.40    
  352.70      417.08      440.85      417.08      352.70      265.40      176.22      102.36      52.930      27.782    
  18.846      14.885      12.163      10.490      9.5252      8.9855      8.6557      8.4350      7.9221      8.0237    
  8.2794      8.6557      9.2819      10.424      12.409      15.587      20.401      34.444      71.296      139.20    
  236.97      352.70      464.90      547.32      577.72      547.32      464.90      352.70      236.97      139.20    
  71.296      34.444      20.401      15.587      12.409      10.424      9.2819      8.6557      8.2794      8.0237    
  7.6280      7.7413      8.0237      8.4350      9.1247      10.393      12.593      16.071      21.767      40.077    
  85.783      167.18      282.21      417.08      547.32      642.86      678.10      642.86      547.32      417.08    
  282.21      167.18      85.783      40.077      21.767      16.071      12.593      10.393      9.1247      8.4350    
  8.0237      7.7413      7.5097      7.6280      7.9221      8.3491      9.0648      10.381      12.660      16.243    
  22.325      42.287      91.291      177.65      298.98      440.85      577.72      678.10      715.12      678.10    
  577.72      440.85      298.98      177.65      91.291      42.287      22.325      16.243      12.660      10.381    
  9.0648      8.3491      7.9221      7.6280      7.6280      7.7413      8.0237      8.4350      9.1247      10.393    
  12.593      16.071      21.767      40.077      85.783      167.18      282.21      417.08      547.32      642.86    
  678.10      642.86      547.32      417.08      282.21      167.18      85.783      40.077      21.767      16.071    
  12.593      10.393      9.1247      8.4350      8.0237      7.7413      7.9221      8.0237      8.2794      8.6557    
  9.2819      10.424      12.409      15.587      20.401      34.444      71.296      139.20      236.97      352.70    
  464.90      547.32      577.72      547.32      464.90      352.70      236.97      139.20      71.296      34.444    
  20.401      15.587      12.409      10.424      9.2819      8.6557      8.2794      8.0237      8.3491      8.4350    
  8.6557      8.9855      9.5252      10.490      12.163      14.885      18.846      27.782      52.930      102.36    
  176.22      265.40      352.70      417.08      440.85      417.08      352.70      265.40      176.22      102.36    
  52.930      27.782      18.846      14.885      12.163      10.490      9.5252      8.9855      8.6557      8.4350    
  9.0648      9.1247      9.2819      9.5252      9.9315      10.665      11.955      14.107      17.352      22.423    
  36.379      66.816      115.37      176.22      236.97      282.21      298.98      282.21      236.97      176.22    
  115.37      66.816      36.379      22.423      17.352      14.107      11.955      10.665      9.9315      9.5252    
  9.2819      9.1247      10.381      10.393      10.424      10.490      10.665      11.080      11.918      13.427    
  15.847      19.178      25.328      40.258      66.816      102.36      139.20      167.18      177.65      167.18    
  139.20      102.36      66.816      40.258      25.328      19.178      15.847      13.427      11.918      11.080    
  10.665      10.490      10.424      10.393      12.660      12.593      12.409      12.163      11.955      11.918    
  12.209      13.021      14.552      16.885      19.884      25.328      36.379      52.930      71.296      85.783    
  91.291      85.783      71.296      52.930      36.379      25.328      19.884      16.885      14.552      13.021    
  12.209      11.918      11.955      12.163      12.409      12.593      16.243      16.071      15.587      14.885    
  14.107      13.427      13.021      13.057      13.683      14.978      16.885      19.178      22.423      27.782    
  34.444      40.077      42.287      40.077      34.444      27.782      22.423      19.178      16.885      14.978    
  13.683      13.057      13.021      13.427      14.107      14.885      15.587      16.071      22.325      21.767    
  20.401      18.846      17.352      15.847      14.552      13.683      13.378      13.683      14.552      15.847    
  17.352      18.846      20.401      21.767      22.325      21.767      20.401      18.846      17.352      15.847    
  14.552      13.683      13.378      13.683      14.552      15.847      17.352      18.846      20.401      21.767    
  42.287      40.077      34.444      27.782      22.423      19.178      16.885      14.978      13.683      13.057    
  13.021      13.427      14.107      14.885      15.587      16.071      16.243      16.071      15.587      14.885    
  14.107      13.427      13.021      13.057      13.683      14.978      16.885      19.178      22.423      27.782    
  34.444      40.077      91.291      85.783      71.296      52.930      36.379      25.328      19.884      16.885    
  14.552      13.021      12.209      11.918      11.955      12.163      12.409      12.593      12.660      12.593    
  12.409      12.163      11.955      11.918      12.209      13.021      14.552      16.885      19.884      25.328    
  36.379      52.930      71.296      85.783      177.65      167.18      139.20      102.36      66.816      40.258    
  25.328      19.178      15.847      13.427      11.918      11.080      10.665      10.490      10.424      10.393    
  10.381      10.393      10.424      10.490      10.665      11.080      11.918      13.427      15.847      19.178    
  25.328      40.258      66.816      102.36      139.20      167.18      298.98      282.21      236.97      176.22    
  115.37      66.816      36.379      22.423      17.352      14.107      11.955      10.665      9.9315      9.5252    
  9.2819      9.1247      9.0648      9.1247      9.2819      9.5252      9.9315      10.665      11.955      14.107    
  17.352      22.423      36.379      66.816      115.37      176.22      236.97      282.21      440.85      417.08    
  352.70      265.40      176.22      102.36      52.930      27.782      18.846      14.885      12.163      10.490    
  9.5252      8.9855      8.6557      8.4350      8.3491      8.4350      8.6557      8.9855      9.5252      10.490    
  12.163      14.885      18.846      27.782      52.930      102.36      176.22      265.40      352.70      417.08    
  577.72      547.32      464.90      352.70      236.97      139.20      71.296      34.444      20.401      15.587    
  12.409      10.424      9.2819      8.6557      8.2794      8.0237      7.9221      8.0237      8.2794      8.6557    
  9.2819      10.424      12.409      15.587      20.401      34.444      71.296      139.20      236.97      352.70    
  464.90      547.32      678.10      642.86      547.32      417.08      282.21      167.18      85.783      40.077    
  21.767      16.071      12.593      10.393      9.1247      8.4350      8.0237      7.7413      7.6280      7.7413    
  8.0237      8.4350      9.1247      10.393      12.593      16.071      21.767      40.077      85.783      167.18    
  282.21      417.08      547.32      642.86      678.10      642.86      547.32      417.08      282.21      167.18    
  85.783      40.077      21.767      16.071      12.593      10.393      9.1247      8.4350      8.0237      7.7413    
  7.6280      7.7413      8.0237      8.4350      9.1247      10.393      12.593      16.071      21.767      40.077    
  85.783      167.18      282.21      417.08      547.32      642.86      642.86      609.33      518.39      394.47    
  266.29      157.30      80.622      38.036      21.261      15.902      12.528      10.403      9.1817      8.5172    
  8.1208      7.8497      7.7413      7.8497      8.1208      8.5172      9.1817      10.403      12.528      15.902    
  21.261      38.036      80.622      157.30      266.29      394.47      518.39      609.33      547.32      518.39    
  439.97      333.27      223.39      130.89      67.071      32.852      20.019      15.427      12.347      10.432    
  9.3322      8.7288      8.3664      8.1208      8.0237      8.1208      8.3664      8.7288      9.3322      10.432    
  12.347      15.427      20.019      32.852      67.071      130.89      223.39      333.27      439.97      518.39    
  417.08      394.47      333.27      250.37      165.88      96.204      49.959      26.754      18.581      14.738    
  12.106      10.494      9.5658      9.0463      8.7288      8.5172      8.4350      8.5172      8.7288      9.0463    
  9.5658      10.494      12.106      14.738      18.581      26.754      49.959      96.204      165.88      250.37    
  333.27      394.47      282.21      266.29      223.39      165.88      108.46      62.905      34.646      21.882    
  17.129      13.979      11.902      10.661      9.9563      9.5658      9.3322      9.1817      9.1247      9.1817    
  9.3322      9.5658      9.9563      10.661      11.902      13.979      17.129      21.882      34.646      62.905    
  108.46      165.88      223.39      266.29      167.18      157.30      130.89      96.204      62.905      38.227    
  24.532      18.894      15.656      13.316      11.863      11.058      10.661      10.494      10.432      10.403    
  10.393      10.403      10.432      10.494      10.661      11.058      11.863      13.316      15.656      18.894    
  24.532      38.227      62.905      96.204      130.89      157.30      85.783      80.622      67.071      49.959    
  34.646      24.532      19.561      16.658      14.397      12.920      12.141      11.863      11.902      12.106    
  12.347      12.528      12.593      12.528      12.347      12.106      11.902      11.863      12.141      12.920    
  14.397      16.658      19.561      24.532      34.646      49.959      67.071      80.622      40.077      38.036    
  32.852      26.754      21.882      18.894      16.658      14.806      13.555      12.953      12.920      13.316    
  13.979      14.738      15.427      15.902      16.071      15.902      15.427      14.738      13.979      13.316    
  12.920      12.953      13.555      14.806      16.658      18.894      21.882      26.754      32.852      38.036    
  21.767      21.261      20.019      18.581      17.129      15.656      14.397      13.555      13.259      13.555    
  14.397      15.656      17.129      18.581      20.019      21.261      21.767      21.261      20.019      18.581    
  17.129      15.656      14.397      13.555      13.259      13.555      14.397      15.656      17.129      18.581    
  20.019      21.261      16.071      15.902      15.427      14.738      13.979      13.316      12.920      12.953    
  13.555      14.806      16.658      18.894      21.882      26.754      32.852      38.036      40.077      38.036    
  32.852      26.754      21.882      18.894      16.658      14.806      13.555      12.953      12.920      13.316    
  13.979      14.738      15.427      15.902      12.593      12.528      12.347      12.106      11.902      11.863    
  12.141      12.920      14.397      16.658      19.561      24.532      34.646      49.959      67.071      80.622    
  85.783      80.622      67.071      49.959      34.646      24.532      19.561      16.658      14.397      12.920    
  12.141      11.863      11.902      12.106      12.347      12.528      10.393      10.403      10.432      10.494    
  10.661      11.058      11.863      13.316      15.656      18.894      24.532      38.227      62.905      96.204    
  130.89      157.30      167.18      157.30      130.89      96.204      62.905      38.227      24.532      18.894    
  15.656      13.316      11.863      11.058      10.661      10.494      10.432      10.403      9.1247      9.1817    
  9.3322      9.5658      9.9563      10.661      11.902      13.979      17.129      21.882      34.646      62.905    
  108.46      165.88      223.39      266.29      282.21      266.29      223.39      165.88      108.46      62.905    
  34.646      21.882      17.129      13.979      11.902      10.661      9.9563      9.5658      9.3322      9.1817    
  8.4350      8.5172      8.7288      9.0463      9.5658      10.494      12.106      14.738      18.581      26.754    
  49.959      96.204      165.88      250.37      333.27      394.47      417.08      394.47      333.27      250.37    
  165.88      96.204      49.959      26.754      18.581      14.738      12.106      10.494      9.5658      9.0463    
  8.7288      8.5172      8.0237      8.1208      8.3664      8.7288      9.3322      10.432      12.347      15.427    
  20.019      32.852      67.071      130.89      223.39      333.27      439.97      518.39      547.32      518.39    
  439.97      333.27      223.39      130.89      67.071      32.852      20.019      15.427      12.347      10.432    
  9.3322      8.7288      8.3664      8.1208      7.7413      7.8497      8.1208      8.5172      9.1817      10.403    
  12.528      15.902      21.261      38.036      80.622      157.30      266.29      394.47      518.39      609.33    
  642.86      609.33      518.39      394.47      266.29      157.30      80.622      38.036      21.261      15.902    
  12.528      10.403      9.1817      8.5172      8.1208      7.8497      7.6280      7.7413      8.0237      8.4350    
  9.1247      10.393      12.593      16.071      21.767      40.077      85.783      167.18      282.21      417.08    
  547.32      642.86      678.10      642.86      547.32      417.08      282.21      167.18      85.783      40.077    
  21.767      16.071      12.593      10.393      9.1247      8.4350      8.0237      7.7413      7.7413      7.8497    
  8.1208      8.5172      9.1817      10.403      12.528      15.902      21.261      38.036      80.622      157.30    
  266.29      394.47      518.39      609.33      642.86      609.33      518.39      394.47      266.29      157.30    
  80.622      38.036      21.261      15.902      12.528      10.403      9.1817      8.5172      8.1208      7.8497    
  8.0237      8.1208      8.3664      8.7288      9.3322      10.432      12.347      15.427      20.019      32.852    
  67.071      130.89      223.39      333.27      439.97      518.39      547.32      518.39      439.97      333.27    
  223.39      130.89      67.071      32.852      20.019      15.427      12.347      10.432      9.3322      8.7288    
  8.3664      8.1208      8.4350      8.5172      8.7288      9.0463      9.5658      10.494      12.106      14.738    
  18.581      26.754      49.959      96.204      165.88      250.37      333.27      394.47      417.08      394.47    
  333.27      250.37      165.88      96.204      49.959      26.754      18.581      14.738      12.106      10.494    
  9.5658      9.0463      8.7288      8.5172      9.1247      9.1817      9.3322      9.5658      9.9563      10.661    
  11.902      13.979      17.129      21.882      34.646      62.905      108.46      165.88      223.39      266.29    
  282.21      266.29      223.39      165.88      108.46      62.905      34.646      21.882      17.129      13.979    
  11.902      10.661      9.9563      9.5658      9.3322      9.1817      10.393      10.403      10.432      10.494    
  10.661      11.058      11.863      13.316      15.656      18.894      24.532      38.227      62.905      96.204    
  130.89      157.30      167.18      157.30      130.89      96.204      62.905      38.227      24.532      18.894    
  15.656      13.316      11.863      11.058      10.661      10.494      10.432      10.403      12.593      12.528    
  12.347      12.106      11.902      11.863      12.141      12.920      14.397      16.658      19.561      24.532    
  34.646      49.959      67.071      80.622      85.783      80.622      67.071      49.959      34.646      24.532    
  19.561      16.658      14.397      12.920      12.141      11.863      11.902      12.106      12.347      12.528    
  16.071      15.902      15.427      14.738      13.979      13.316      12.920      12.953      13.555      14.806    
  16.658      18.894      21.882      26.754      32.852      38.036      40.077      38.036      32.852      26.754    
  21.882      18.894      16.658      14.806      13.555      12.953      12.920      13.316      13.979      14.738    
  15.427      15.902      21.767      21.261      20.019      18.581      17.129      15.656      14.397      13.555    
  13.259      13.555      14.397      15.656      17.129      18.581      20.019      21.261      21.767      21.261    
  20.019      18.581      17.129      15.656      14.397      13.555      13.259      13.555      14.397      15.656    
  17.129      18.581      20.019      21.261      40.077      38.036      32.852      26.754      21.882      18.894    
  16.658      14.806      13.555      12.953      12.920      13.316      13.979      14.738      15.427      15.902    
  16.071      15.902      15.427      14.738      13.979      13.316      12.920      12.953      13.555      14.806    
  16.658      18.894      21.882      26.754      32.852      38.036      85.783      80.622      67.071      49.959    
  34.646      24.532      19.561      16.658      14.397      12.920      12.141      11.863      11.902      12.106    
  12.347      12.528      12.593      12.528      12.347      12.106      11.902      11.863      12.141      12.920    
  14.397      16.658      19.561      24.532      34.646      49.959      67.071      80.622      167.18      157.30    
  130.89      96.204      62.905      38.227      24.532      18.894      15.656      13.316      11.863      11.058    
  10.661      10.494      10.432      10.403      10.393      10.403      10.432      10.494      10.661      11.058    
  11.863      13.316      15.656      18.894      24.532      38.227      62.905      96.204      130.89      157.30    
  282.21      266.29      223.39      165.88      108.46      62.905      34.646      21.882      17.129      13.979    
  11.902      10.661      9.9563      9.5658      9.3322      9.1817      9.1247      9.1817      9.3322      9.5658    
  9.9563      10.661      11.902      13.979      17.129      21.882      34.646      62.905      108.46      165.88    
  223.39      266.29      417.08      394.47      333.27      250.37      165.88      96.204      49.959      26.754    
  18.581      14.738      12.106      10.494      9.5658      9.0463      8.7288      8.5172      8.4350      8.5172    
  8.7288      9.0463      9.5658      10.494      12.106      14.738      18.581      26.754      49.959      96.204    
  165.88      250.37      333.27      394.47      547.32      518.39      439.97      333.27      223.39      130.89    
  67.071      32.852      20.019      15.427      12.347      10.432      9.3322      8.7288      8.3664      8.1208    
  8.0237      8.1208      8.3664      8.7288      9.3322      10.432      12.347      15.427      20.019      32.852    
  67.071      130.89      223.39      333.27      439.97      518.39      642.86      609.33      518.39      394.47    
  266.29      157.30      80.622      38.036      21.261      15.902      12.528      10.403      9.1817      8.5172    
  8.1208      7.8497      7.7413      7.8497      8.1208      8.5172      9.1817      10.403      12.528      15.902    
  21.261      38.036      80.622      157.30      266.29      394.47      518.39      609.33      577.72      547.32    
  464.90      352.70      236.97      139.20      71.296      34.444      20.401      15.587      12.409      10.424    
  9.2819      8.6557      8.2794      8.0237      7.9221      8.0237      8.2794      8.6557      9.2819      10.424    
  12.409      15.587      20.401      34.444      71.296      139.20      236.97      352.70      464.90      547.32    
  547.32      518.39      439.97      333.27      223.39      130.89      67.071      32.852      20.019      15.427    
  12.347      10.432      9.3322      8.7288      8.3664      8.1208      8.0237      8.1208      8.3664      8.7288    
  9.3322      10.432      12.347      15.427      20.019      32.852      67.071      130.89      223.39      333.27    
  439.97      518.39      464.90      439.97      372.44      280.77      186.88      108.76      56.041      28.839    
  19.063      14.977      12.177      10.454      9.4661      8.9193      8.5884      8.3664      8.2794      8.3664    
  8.5884      8.9193      9.4661      10.454      12.177      14.977      19.063      28.839      56.041      108.76    
  186.88      280.77      372.44      439.97      352.70      333.27      280.77      209.89      138.20      79.945    
  42.287      24.195      17.864      14.332      11.951      10.507      9.6763      9.2075      8.9193      8.7288    
  8.6557      8.7288      8.9193      9.2075      9.6763      10.507      11.951      14.332      17.864      24.195    
  42.287      79.945      138.20      209.89      280.77      333.27      236.97      223.39      186.88      138.20    
  90.116      52.703      30.253      20.535      16.499      13.626      11.760      10.654      10.026      9.6763    
  9.4661      9.3322      9.2819      9.3322      9.4661      9.6763      10.026      10.654      11.760      13.626    
  16.499      20.535      30.253      52.703      90.116      138.20      186.88      223.39      139.20      130.89    
  108.76      79.945      52.703      33.043      22.551      18.106      15.126      13.013      11.717      11.004    
  10.654      10.507      10.454      10.432      10.424      10.432      10.454      10.507      10.654      11.004    
  11.717      13.013      15.126      18.106      22.551      33.043      52.703      79.945      108.76      130.89    
  71.296      67.071      56.041      42.287      30.253      22.551      18.694      16.023      13.968      12.646    
  11.956      11.717      11.760      11.951      12.177      12.347      12.409      12.347      12.177      11.951    
  11.760      11.717      11.956      12.646      13.968      16.023      18.694      22.551      30.253      42.287    
  56.041      67.071      34.444      32.852      28.839      24.195      20.535      18.106      16.023      14.329    
  13.201      12.666      12.646      13.013      13.626      14.332      14.977      15.427      15.587      15.427    
  14.977      14.332      13.626      13.013      12.646      12.666      13.201      14.329      16.023      18.106    
  20.535      24.195      28.839      32.852      20.401      20.019      19.063      17.864      16.499      15.126    
  13.968      13.201      12.934      13.201      13.968      15.126      16.499      17.864      19.063      20.019    
  20.401      20.019      19.063      17.864      16.499      15.126      13.968      13.201      12.934      13.201    
  13.968      15.126      16.499      17.864      19.063      20.019      15.587      15.427      14.977      14.332    
  13.626      13.013      12.646      12.666      13.201      14.329      16.023      18.106      20.535      24.195    
  28.839      32.852      34.444      32.852      28.839      24.195      20.535      18.106      16.023      14.329    
  13.201      12.666      12.646      13.013      13.626      14.332      14.977      15.427      12.409      12.347    
  12.177      11.951      11.760      11.717      11.956      12.646      13.968      16.023      18.694      22.551    
  30.253      42.287      56.041      67.071      71.296      67.071      56.041      42.287      30.253      22.551    
  18.694      16.023      13.968      12.646      11.956      11.717      11.760      11.951      12.177      12.347    
  10.424      10.432      10.454      10.507      10.654      11.004      11.717      13.013      15.126      18.106    
  22.551      33.043      52.703      79.945      108.76      130.89      139.20      130.89      108.76      79.945    
  52.703      33.043      22.551      18.106      15.126      13.013      11.717      11.004      10.654      10.507    
  10.454      10.432      9.2819      9.3322      9.4661      9.6763      10.026      10.654      11.760      13.626    
  16.499      20.535      30.253      52.703      90.116      138.20      186.88      223.39      236.97      223.39    