    4    4    1    1
  0.1020639E+02  0.3443320E-09  0.3443320E-09  0.3443320E-09  0.5000000E-15
  1.000000000000000E-004
  CAR 
 unknown system                          
     44     35     30
 
  0.0000000E+00  0.0000000E+00  0.0000000E+00  0.1371742E-02
    1       -0.983246   1.000000
    2        3.722395   1.000000
    3        3.722395   1.000000
    4        3.722395   1.000000
    5        4.282336   1.000000
    6        4.282336   1.000000
    7        4.282336   1.000000
    8        6.028737   1.000000
    9        6.028737   1.000000
   10        6.028737   1.000000
   11        7.065512   1.000000
   12        7.065512   1.000000
   13        7.753764   1.000000
   14        7.753764   1.000000
   15        7.753764   1.000000
   16        7.949141   1.000000
   17        7.949141   1.000000
   18        7.949141   1.000000
   19        7.949141   1.000000
   20        7.949141   1.000000
   21        7.949141   1.000000
   22       10.932094  -0.000000
   23       10.932094  -0.000000
   24       10.932094  -0.000000
   25       17.739641   0.000000
   26       17.739641   0.000000
   27       17.739641   0.000000
   28       23.802663   0.000000
   29       23.802663   0.000000
   30       23.802663   0.000000
 
  0.1111111E+00  0.0000000E+00  0.0000000E+00  0.8230453E-02
    1       -0.816520   1.000000
    2        3.726118   1.000000
    3        3.805236   1.000000
    4        3.805236   1.000000
    5        4.331275   1.000000
    6        4.334795   1.000000
    7        4.334795   1.000000
    8        5.972136   1.000000
    9        6.072771   1.000000
   10        6.072771   1.000000
   11        7.014420   1.000000
   12        7.085679   1.000000
   13        7.610614   1.000000
   14        7.610614   1.000000
   15        7.687145   1.000000
   16        7.687145   1.000000
   17        7.732421   1.000000
   18        7.871279   1.000000
   19        7.871279   1.000000
   20        7.949263   1.000000
   21        7.949263   1.000000
   22       10.076693  -0.001317
   23       11.414130  -0.000000
   24       11.414130  -0.000000
   25       17.785844   0.000000
   26       17.785844   0.000000
   27       18.899109   0.000000
   28       22.827636   0.000000
   29       22.827651   0.000000
   30       23.212895   0.000000
 
  0.2222222E+00  0.0000000E+00  0.0000000E+00  0.8230453E-02
    1       -0.324137   1.000000
    2        3.678458   1.000000
    3        4.032699   1.000000
    4        4.032699   1.000000
    5        4.473537   1.000000
    6        4.493613   1.000000
    7        4.493613   1.000000
    8        5.810739   1.000000
    9        6.203128   1.000000
   10        6.203128   1.000000
   11        6.871376   1.000000
   12        6.936751   1.000000
   13        6.936751   1.000000
   14        7.143941   1.000000
   15        7.499944   1.000000
   16        7.499944   1.000000
   17        7.656926   1.000000
   18        7.656926   1.000000
   19        7.671052   1.000000
   20        7.949573   1.000000
   21        7.949573   1.000000
   22        8.479297   1.000000
   23       12.516189  -0.000000
   24       12.516189  -0.000000
   25       17.932148   0.000000
   26       17.932148   0.000000
   27       21.000184   0.000000
   28       21.000184   0.000000
   29       21.448484   0.000000
   30       21.985806   0.000000
 
  0.3333333E+00  0.0000000E+00  0.0000000E+00  0.8230453E-02
    1        0.466014   1.000000
    2        3.368699   1.000000
    3        4.334226   1.000000
    4        4.334226   1.000000
    5        4.694964   1.000000
    6        4.762176   1.000000
    7        4.762176   1.000000
    8        5.567374   1.000000
    9        6.247975   1.000000
   10        6.247975   1.000000
   11        6.413472   1.000000
   12        6.413472   1.000000
   13        6.674076   1.000000
   14        7.153975   1.000000
   15        7.233896   1.000000
   16        7.243111   1.000000
   17        7.243111   1.000000
   18        7.353649   1.000000
   19        7.353649   1.000000
   20        7.577761   1.000000
   21        7.949941   1.000000
   22        7.949941   1.000000
   23       13.912955  -0.000000
   24       13.912955  -0.000000
   25       18.193398   0.000000
   26       18.193398   0.000000
   27       19.079297   0.000000
   28       19.079297   0.000000
   29       20.774815   0.000000
   30       20.774815   0.000000
 
  0.4444444E+00  0.0000000E+00  0.0000000E+00  0.8230453E-02
    1        1.486237   1.000000
    2        2.568614   1.000000
    3        4.569723   1.000000
    4        4.569723   1.000000
    5        4.972493   1.000000
    6        5.144324   1.000000
    7        5.144324   1.000000
    8        5.275330   1.000000
    9        5.641895   1.000000
   10        5.641895   1.000000
   11        6.505455   1.000000
   12        6.549544   1.000000
   13        6.691519   1.000000
   14        6.691519   1.000000
   15        7.016170   1.000000
   16        7.016170   1.000000
   17        7.036116   1.000000
   18        7.036116   1.000000
   19        7.344939   1.000000
   20        7.464375   1.000000
   21        7.950223   1.000000
   22        7.950223   1.000000
   23       15.497532   0.000000
   24       15.497532   0.000000
   25       17.229144   0.000000
   26       17.229144   0.000000
   27       18.525611   0.000000
   28       18.525611   0.000000
   29       19.917003   0.000000
   30       19.917003   0.000000
 
  0.1111111E+00  0.1111111E+00  0.0000000E+00  0.1646091E-01
    1       -0.651227   1.000000
    2        3.812193   1.000000
    3        3.812193   1.000000
    4        3.884646   1.000000
    5        4.382063   1.000000
    6        4.382063   1.000000
    7        4.383930   1.000000
    8        5.941481   1.000000
    9        6.093423   1.000000
   10        6.108904   1.000000
   11        7.001258   1.000000
   12        7.076358   1.000000
   13        7.389170   1.000000
   14        7.470402   1.000000
   15        7.470402   1.000000
   16        7.625575   1.000000
   17        7.700365   1.000000
   18        7.700365   1.000000
   19        7.871117   1.000000
   20        7.871117   1.000000
   21        7.899365   1.000000
   22       10.557307  -0.000000
   23       10.557307  -0.000000
   24       11.829338  -0.000000
   25       17.825846   0.000000
   26       18.974789   0.000000
   27       18.974789   0.000000
   28       21.071318   0.000000
   29       23.054629   0.000000
   30       23.054692   0.000000
 
  0.2222222E+00  0.1111111E+00  0.0000000E+00  0.3292181E-01
    1       -0.163383   1.000000
    2        3.774023   1.000000
    3        4.049434   1.000000
    4        4.104194   1.000000
    5        4.519231   1.000000
    6        4.531525   1.000000
    7        4.535609   1.000000
    8        5.798877   1.000000
    9        6.210698   1.000000
   10        6.210897   1.000000
   11        6.797447   1.000000
   12        6.830765   1.000000
   13        6.884223   1.000000
   14        7.135880   1.000000
   15        7.136998   1.000000
   16        7.451721   1.000000
   17        7.510263   1.000000
   18        7.642815   1.000000
   19        7.656048   1.000000
   20        7.870409   1.000000
   21        7.872621   1.000000
   22        9.052343   1.000575
   23       11.571288  -0.000000
   24       12.844445  -0.000000
   25       17.898062   0.000000
   26       19.208401   0.000000
   27       19.208822   0.000000
   28       21.210573   0.000000
   29       21.540017   0.000000
   30       22.195244   0.000000
 
  0.3333333E+00  0.1111111E+00  0.0000000E+00  0.3292181E-01
    1        0.618650   1.000000
    2        3.478436   1.000000
    3        4.367394   1.000000
    4        4.400694   1.000000
    5        4.732551   1.000000
    6        4.772413   1.000000
    7        4.794639   1.000000
    8        5.568832   1.000000
    9        6.129929   1.000000
   10        6.205269   1.000000
   11        6.337290   1.000000
   12        6.416570   1.000000
   13        6.639733   1.000000
   14        6.748667   1.000000
   15        7.212087   1.000000
   16        7.249233   1.000000
   17        7.255362   1.000000
   18        7.352507   1.000000
   19        7.477589   1.000000
   20        7.866939   1.000000
   21        7.869259   1.000000
   22        7.984565   1.000000
   23       12.787252  -0.000000
   24       14.186263  -0.000000
   25       17.098195   0.000000
   26       18.523018   0.000000
   27       19.289432   0.000000
   28       19.579909   0.000000
   29       21.005106   0.000000
   30       22.751583   0.000000
 
  0.4444444E+00  0.1111111E+00  0.0000000E+00  0.3292181E-01
    1        1.626607   1.000000
    2        2.693537   1.000000
    3        4.625844   1.000000
    4        4.639945   1.000000
    5        4.999453   1.000000
    6        5.103064   1.000000
    7        5.161916   1.000000
    8        5.289859   1.000000
    9        5.555287   1.000000
   10        5.635940   1.000000
   11        6.322515   1.000000
   12        6.328052   1.000000
   13        6.692379   1.000000
   14        6.833726   1.000000
   15        7.015602   1.000000
   16        7.023908   1.000000
   17        7.041607   1.000000
   18        7.142453   1.000000
   19        7.394624   1.000000
   20        7.580758   1.000000
   21        7.866649   1.000000
   22        7.867868   1.000000
   23       14.122813  -0.000000
   24       15.567285   0.000000
   25       15.737621   0.000000
   26       17.449369   0.000000
   27       18.931888   0.000000
   28       19.545528   0.000000
   29       20.711073   0.000000
   30       21.562995   0.000000
 
  0.2222222E+00  0.2222222E+00  0.0000000E+00  0.1646091E-01
    1        0.310166   1.000000
    2        4.040405   1.000000
    3        4.040405   1.000000
    4        4.300556   1.000000
    5        4.644905   1.000000
    6        4.657057   1.000000
    7        4.657057   1.000000
    8        5.723669   1.000000
    9        6.235252   1.000000
   10        6.277731   1.000000
   11        6.460972   1.000000
   12        6.460972   1.000000
   13        6.515037   1.000000
   14        6.844899   1.000000
   15        7.198905   1.000000
   16        7.312350   1.000000
   17        7.475056   1.000000
   18        7.475056   1.000000
   19        7.653798   1.000000
   20        7.653798   1.000000
   21        7.752649   1.000000
   22        9.978399  -0.008539
   23        9.978399  -0.008539
   24       13.714351  -0.000000
   25       16.780616   0.000000
   26       18.435716   0.000000
   27       21.746592   0.000000
   28       21.746592   0.000000
   29       21.816988   0.000000
   30       21.816988   0.000000
 
  0.3333333E+00  0.2222222E+00  0.0000000E+00  0.3292181E-01
    1        1.066191   1.000000
    2        3.786109   1.000000
    3        4.408590   1.000000
    4        4.575494   1.000000
    5        4.813731   1.000000
    6        4.844835   1.000000
    7        4.887639   1.000000
    8        5.555268   1.000000
    9        5.860952   1.000000
   10        6.070705   1.000000
   11        6.110875   1.000000
   12        6.240285   1.000000
   13        6.448038   1.000000
   14        6.766644   1.000000
   15        7.115656   1.000000
   16        7.234797   1.000000
   17        7.328967   1.000000
   18        7.350655   1.000000
   19        7.377026   1.000000
   20        7.651309   1.000000
   21        7.685546   1.000000
   22        8.727144   1.000000
   23       11.012529  -0.000000
   24       14.943321  -0.000000
   25       15.020868  -0.000000
   26       18.732992   0.000000
   27       19.894921   0.000000
   28       21.177084   0.000000
   29       22.678108   0.000000
   30       22.758470   0.000000
 
  0.4444444E+00  0.2222222E+00  0.0000000E+00  0.3292181E-01
    1        2.033771   1.000000
    2        3.048650   1.000000
    3        4.743531   1.000000
    4        4.836617   1.000000
    5        4.990285   1.000000
    6        5.077589   1.000000
    7        5.209828   1.000000
    8        5.326073   1.000000
    9        5.361484   1.000000
   10        5.613305   1.000000
   11        6.013057   1.000000
   12        6.133829   1.000000
   13        6.704904   1.000000
   14        6.842433   1.000000
   15        6.969191   1.000000
   16        7.017570   1.000000
   17        7.018243   1.000000
   18        7.077950   1.000000
   19        7.634006   1.000000
   20        7.651340   1.000000
   21        7.658937   1.000000
   22        8.016463   1.000000
   23       12.162057  -0.000000
   24       13.478786  -0.000000
   25       16.418215   0.000000
   26       18.080826   0.000000
   27       19.298739   0.000000
   28       20.124400   0.000000
   29       23.430273   0.000000
   30       23.964357   0.000000
 
  0.3333333E+00  0.3333333E+00  0.0000000E+00  0.1646091E-01
    1        1.772856   1.000000
    2        4.218137   1.000000
    3        4.218137   1.000000
    4        4.757586   1.000000
    5        4.927892   1.000000
    6        5.028716   1.000000
    7        5.028716   1.000000
    8        5.489835   1.000000
    9        5.676305   1.000000
   10        5.676305   1.000000
   11        5.843684   1.000000
   12        6.156562   1.000000
   13        6.554458   1.000000
   14        6.686484   1.000000
   15        6.965000   1.000000
   16        7.108966   1.000000
   17        7.108966   1.000000
   18        7.353046   1.000000
   19        7.353046   1.000000
   20        7.519064   1.000000
   21        7.653085   1.000000
   22        9.556781   0.607871
   23        9.556781   0.607871
   24       13.195827  -0.000000
   25       16.064213   0.000000
   26       19.174927   0.000000
   27       20.836884   0.000000
   28       20.836884   0.000000
   29       22.033559   0.000000
   30       22.033559   0.000000
 
  0.4444444E+00  0.3333333E+00  0.0000000E+00  0.3292181E-01
    1        2.659337   1.000000
    2        3.565928   1.000000
    3        4.626141   1.000000
    4        4.811992   1.000000
    5        5.117294   1.000000
    6        5.196240   1.000000
    7        5.274536   1.000000
    8        5.347519   1.000000
    9        5.361508   1.000000
   10        5.560097   1.000000
   11        5.773942   1.000000
   12        5.996191   1.000000
   13        6.707393   1.000000
   14        6.757179   1.000000
   15        6.847498   1.000000
   16        6.890969   1.000000
   17        6.903695   1.000000
   18        7.037188   1.000000
   19        7.369585   1.000000
   20        7.417120   1.000000
   21        8.038566   1.000000
   22        8.607533   1.000000
   23       10.520125  -0.000000
   24       11.704958  -0.000000
   25       17.454731   0.000000
   26       19.057373   0.000000
   27       19.855349   0.000000
   28       20.805638   0.000000
   29       22.051826   0.000000
   30       23.098001   0.000000
 
  0.4444444E+00  0.4444444E+00  0.0000000E+00  0.1646091E-01
    1        3.404667   1.000000
    2        4.114868   1.000000
    3        4.114868   1.000000
    4        4.542494   1.000000
    5        5.335481   1.000000
    6        5.335481   1.000000
    7        5.368689   1.000000
    8        5.395366   1.000000
    9        5.465419   1.000000
   10        5.598318   1.000000
   11        5.598318   1.000000
   12        5.846478   1.000000
   13        6.622169   1.000000
   14        6.713460   1.000000
   15        6.721989   1.000000
   16        6.721989   1.000000
   17        6.882982   1.000000
   18        7.095118   1.000000
   19        7.095118   1.000000
   20        7.218491   1.000000
   21        8.574727   1.000000
   22        9.345087   1.035228
   23        9.345087   1.035228
   24       10.337221  -0.000001
   25       18.770205   0.000000
   26       20.312890   0.000000
   27       20.312890   0.000000
   28       20.659094   0.000000
   29       21.737779   0.000000
   30       21.737789   0.000000
 
  0.1111111E+00  0.1111111E+00  0.1111111E+00  0.1097394E-01
    1       -0.487608   1.000000
    2        3.894003   1.000000
    3        3.894003   1.000000
    4        3.894003   1.000000
    5        4.429738   1.000000
    6        4.429738   1.000000
    7        4.429738   1.000000
    8        5.913998   1.000000
    9        6.124304   1.000000
   10        6.124304   1.000000
   11        7.031698   1.000000
   12        7.031698   1.000000
   13        7.270108   1.000000
   14        7.270108   1.000000
   15        7.270108   1.000000
   16        7.553403   1.000000
   17        7.553403   1.000000
   18        7.553403   1.000000
   19        7.882024   1.000000
   20        7.882024   1.000000
   21        7.882024   1.000000
   22       10.945515  -0.000000
   23       10.945515  -0.000000
   24       10.945515  -0.000000
   25       19.041376   0.000000
   26       19.041376   0.000000
   27       19.041376   0.000000
   28       21.291884   0.000000
   29       21.291884   0.000000
   30       21.291884   0.000000
 
  0.2222222E+00  0.1111111E+00  0.1111111E+00  0.3292181E-01
    1       -0.004952   1.000000
    2        3.862320   1.000000
    3        4.120039   1.000000
    4        4.120039   1.000000
    5        4.563224   1.000000
    6        4.572664   1.000000
    7        4.572664   1.000000
    8        5.789205   1.000000
    9        6.211116   1.000000
   10        6.217614   1.000000
   11        6.707799   1.000000
   12        6.707799   1.000000
   13        6.917345   1.000000
   14        6.922373   1.000000
   15        7.118538   1.000000
   16        7.365638   1.000000
   17        7.399884   1.000000
   18        7.399884   1.000000
   19        7.819517   1.000000
   20        7.852735   1.000000
   21        7.852735   1.000000
   22        9.408501   1.005859
   23       11.851837  -0.000000
   24       11.851837  -0.000000
   25       18.984117   0.000000
   26       18.984117   0.000000
   27       19.649140   0.000000
   28       19.649140   0.000000
   29       21.485780   0.000000
   30       22.069636   0.000000
 
  0.3333333E+00  0.1111111E+00  0.1111111E+00  0.3292181E-01
    1        0.767588   1.000000
    2        3.577332   1.000000
    3        4.428504   1.000000
    4        4.428504   1.000000
    5        4.771413   1.000000
    6        4.801179   1.000000
    7        4.801179   1.000000
    8        5.574644   1.000000
    9        6.107581   1.000000
   10        6.107581   1.000000
   11        6.309764   1.000000
   12        6.372240   1.000000
   13        6.457351   1.000000
   14        6.837201   1.000000
   15        7.112383   1.000000
   16        7.188599   1.000000
   17        7.188599   1.000000
   18        7.248492   1.000000
   19        7.709381   1.000000
   20        7.826481   1.000000
   21        7.826481   1.000000
   22        8.198005   1.000000
   23       12.991906  -0.000000
   24       12.991906  -0.000000
   25       17.447286   0.000000
   26       17.447286   0.000000
   27       19.870343   0.000000
   28       19.870343   0.000000
   29       22.768160   0.000000
   30       22.936583   0.000000
 
  0.4444444E+00  0.1111111E+00  0.1111111E+00  0.3292181E-01
    1        1.760920   1.000000
    2        2.808790   1.000000
    3        4.695728   1.000000
    4        4.695728   1.000000
    5        5.030570   1.000000
    6        5.073073   1.000000
    7        5.073073   1.000000
    8        5.309729   1.000000
    9        5.607710   1.000000
   10        5.607710   1.000000
   11        6.215182   1.000000
   12        6.258511   1.000000
   13        6.584324   1.000000
   14        6.839427   1.000000
   15        7.004244   1.000000
   16        7.004244   1.000000
   17        7.017449   1.000000
   18        7.404023   1.000000
   19        7.461072   1.000000
   20        7.564554   1.000000
   21        7.814964   1.000000
   22        7.814964   1.000000
   23       14.204970  -0.000000
   24       14.204970  -0.000000
   25       15.951615   0.000000
   26       15.951615   0.000000
   27       20.514949   0.000000
   28       20.514949   0.000000
   29       21.770664   0.000000
   30       21.770664   0.000000
 
  0.2222222E+00  0.2222222E+00  0.1111111E+00  0.3292181E-01
    1        0.461155   1.000000
    2        4.105348   1.000000
    3        4.105348   1.000000
    4        4.310684   1.000000
    5        4.684401   1.000000
    6        4.695616   1.000000
    7        4.695616   1.000000
    8        5.726191   1.000000
    9        6.232482   1.000000
   10        6.255855   1.000000
   11        6.397558   1.000000
   12        6.397558   1.000000
   13        6.423947   1.000000
   14        6.919657   1.000000
   15        7.165859   1.000000
   16        7.205371   1.000000
   17        7.233384   1.000000
   18        7.233384   1.000000
   19        7.792646   1.000000
   20        7.792646   1.000000
   21        7.794342   1.000000
   22       10.191230  -0.000073
   23       10.191230  -0.000073
   24       12.568780  -0.000000
   25       17.155091   0.000000
   26       19.713126   0.000000
   27       19.840674   0.000000
   28       19.840674   0.000000
   29       22.055664   0.000000
   30       22.055664   0.000000
 
  0.3333333E+00  0.2222222E+00  0.1111111E+00  0.6584362E-01
    1        1.203164   1.000000
    2        3.846673   1.000000
    3        4.435589   1.000000
    4        4.570284   1.000000
    5        4.846203   1.000000
    6        4.890609   1.000000
    7        4.902061   1.000000
    8        5.577364   1.000000
    9        5.887380   1.000000
   10        6.028699   1.000000
   11        6.077885   1.000000
   12        6.233482   1.000000
   13        6.358803   1.000000
   14        6.903925   1.000000
   15        6.988069   1.000000
   16        7.024036   1.000000
   17        7.080068   1.000000
   18        7.346649   1.000000
   19        7.667686   1.000000
   20        7.723379   1.000000
   21        7.724948   1.000000
   22        8.828452   1.000001
   23       11.149859  -0.000000
   24       13.444799  -0.000000
   25       15.506417   0.000000
   26       18.065002   0.000000
   27       20.216315   0.000000
   28       20.768970   0.000000
   29       22.520346   0.000000
   30       23.562836   0.000000
 
  0.4444444E+00  0.2222222E+00  0.1111111E+00  0.6584362E-01
    1        2.147608   1.000000
    2        3.130698   1.000000
    3        4.754299   1.000000
    4        4.852982   1.000000
    5        4.926030   1.000000
    6        5.046705   1.000000
    7        5.125957   1.000000
    8        5.365536   1.000000
    9        5.571097   1.000000
   10        5.684724   1.000000
   11        5.998243   1.000000
   12        6.122333   1.000000
   13        6.515706   1.000000
   14        6.732279   1.000000
   15        6.890843   1.000000
   16        6.919091   1.000000
   17        7.094666   1.000000
   18        7.427248   1.000000
   19        7.594795   1.000000
   20        7.682547   1.000000
   21        7.683265   1.000000
   22        7.995592   1.000000
   23       12.229128  -0.000000
   24       13.350581  -0.000000
   25       15.289570   0.000000
   26       16.512328   0.000000
   27       20.990489   0.000000
   28       21.951044   0.000000
   29       22.009248   0.000000
   30       23.361078   0.000000
 
  0.3333333E+00  0.3333333E+00  0.1111111E+00  0.3292181E-01
    1        1.886127   1.000000
    2        4.199926   1.000000
    3        4.199926   1.000000
    4        4.664658   1.000000
    5        4.997066   1.000000
    6        5.088288   1.000000
    7        5.088288   1.000000
    8        5.540772   1.000000
    9        5.735122   1.000000
   10        5.735122   1.000000
   11        5.888017   1.000000
   12        6.159282   1.000000
   13        6.379972   1.000000
   14        6.842989   1.000000
   15        6.874862   1.000000
   16        6.874862   1.000000
   17        6.899425   1.000000
   18        7.560986   1.000000
   19        7.560986   1.000000
   20        7.605673   1.000000
   21        7.612544   1.000000
   22        9.611824   0.377420
   23        9.611824   0.377420
   24       12.991038  -0.000000
   25       15.064547   0.000000
   26       18.959608   0.000000
   27       18.959608   0.000000
   28       20.802878   0.000000
   29       23.131589   0.000000
   30       24.131107   0.000000
 
  0.4444444E+00  0.3333333E+00  0.1111111E+00  0.6584362E-01
    1        2.731957   1.000000
    2        3.581127   1.000000
    3        4.503047   1.000000
    4        4.655118   1.000000
    5        5.175956   1.000000
    6        5.259162   1.000000
    7        5.289191   1.000000
    8        5.443232   1.000000
    9        5.578173   1.000000
   10        5.718546   1.000000
   11        5.806648   1.000000
   12        6.008277   1.000000
   13        6.462881   1.000000
   14        6.642335   1.000000
   15        6.723438   1.000000
   16        6.750828   1.000000
   17        7.038524   1.000000
   18        7.311869   1.000000
   19        7.496346   1.000000
   20        7.514428   1.000000
   21        7.991908   1.000000
   22        8.584278   1.000000
   23       10.541816  -0.000000
   24       11.680456  -0.000000
   25       16.048996   0.000000
   26       17.383055   0.000000
   27       20.115125   0.000000
   28       21.508648   0.000000
   29       21.661507   0.000000
   30       22.794442   0.000000
 
  0.4444444E+00  0.4444444E+00  0.1111111E+00  0.3292181E-01
    1        3.408155   1.000000
    2        4.032889   1.000000
    3        4.032889   1.000000
    4        4.388252   1.000000
    5        5.441360   1.000000
    6        5.488151   1.000000
    7        5.488151   1.000000
    8        5.507301   1.000000
    9        5.665740   1.000000
   10        5.665740   1.000000
   11        5.679226   1.000000
   12        5.875143   1.000000
   13        6.443017   1.000000
   14        6.555534   1.000000
   15        6.555534   1.000000
   16        6.575051   1.000000
   17        7.081129   1.000000
   18        7.268790   1.000000
   19        7.268790   1.000000
   20        7.350686   1.000000
   21        8.525517   1.000000
   22        9.316721   1.034012
   23        9.316721   1.034012
   24       10.313174  -0.000002
   25       17.159575   0.000000
   26       18.518081   0.000000
   27       18.518081   0.000000
   28       19.894537   0.000000
   29       22.604395   0.000000
   30       23.821113   0.000000
 
  0.2222222E+00  0.2222222E+00  0.2222222E+00  0.1097394E-01
    1        0.903332   1.000000
    2        4.268683   1.000000
    3        4.268683   1.000000
    4        4.268683   1.000000
    5        4.817621   1.000000
    6        4.817621   1.000000
    7        4.817621   1.000000
    8        5.711712   1.000000
    9        6.195881   1.000000
   10        6.195881   1.000000
   11        6.195881   1.000000
   12        6.232398   1.000000
   13        6.232398   1.000000
   14        6.981530   1.000000
   15        6.981530   1.000000
   16        6.981530   1.000000
   17        7.097088   1.000000
   18        7.097088   1.000000
   19        7.832963   1.000000
   20        7.832963   1.000000
   21        7.832963   1.000000
   22       10.747949  -0.000000
   23       10.747949  -0.000000
   24       10.747949  -0.000000
   25       17.794903   0.000000
   26       17.794903   0.000000
   27       17.794903   0.000000
   28       22.403865   0.000000
   29       22.403865   0.000000
   30       22.403865   0.000000
 
  0.3333333E+00  0.2222222E+00  0.2222222E+00  0.3292181E-01
    1        1.599243   1.000000
    2        3.991419   1.000000
    3        4.456011   1.000000
    4        4.456011   1.000000
    5        5.002041   1.000000
    6        5.002041   1.000000
    7        5.039361   1.000000
    8        5.637503   1.000000
    9        5.941975   1.000000
   10        5.941975   1.000000
   11        5.981448   1.000000
   12        6.207010   1.000000
   13        6.258211   1.000000
   14        6.736551   1.000000
   15        6.820238   1.000000
   16        6.820238   1.000000
   17        7.115612   1.000000
   18        7.311905   1.000000
   19        7.773629   1.000000
   20        7.773629   1.000000
   21        7.801500   1.000000
   22        9.187396   1.008645
   23       11.490055  -0.000000
   24       11.490055  -0.000000
   25       16.077176   0.000000
   26       16.077176   0.000000
   27       18.697833   0.000000
   28       22.880180   0.000000
   29       22.992745   0.000000
   30       22.992745   0.000000
 
  0.4444444E+00  0.2222222E+00  0.2222222E+00  0.3292181E-01
    1        2.466838   1.000000
    2        3.345104   1.000000
    3        4.594789   1.000000
    4        4.594789   1.000000
    5        5.118790   1.000000
    6        5.118790   1.000000
    7        5.285969   1.000000
    8        5.492623   1.000000
    9        5.814941   1.000000
   10        5.814941   1.000000
   11        5.953761   1.000000
   12        6.085139   1.000000
   13        6.353578   1.000000
   14        6.517894   1.000000
   15        6.708325   1.000000
   16        6.708325   1.000000
   17        7.412018   1.000000
   18        7.521117   1.000000
   19        7.692619   1.000000
   20        7.709180   1.000000
   21        7.709180   1.000000
   22        8.080191   1.000000
   23       12.186944  -0.000000
   24       12.186944  -0.000000
   25       14.895059  -0.000000
   26       14.895059  -0.000000
   27       19.857925   0.000000
   28       21.254552   0.000000
   29       23.782829   0.000000
   30       23.782829   0.000000
 
  0.3333333E+00  0.3333333E+00  0.2222222E+00  0.3292181E-01
    1        2.205021   1.000000
    2        4.142212   1.000000
    3        4.142212   1.000000
    4        4.415969   1.000000
    5        5.200077   1.000000
    6        5.270668   1.000000
    7        5.270668   1.000000