unknown system                          
   1.00000000000000     
     2.330000    0.000000    0.000000
    -1.165000    2.017839    0.000000
     0.000000    0.000000    4.059000
   Fe
     2
Direct
  0.000000  0.000000  0.000000
  0.333333  0.666667  0.500000
 
   20   20   36
  160.12      151.72      129.15      98.820      67.952      42.037      23.903      13.807      9.8463      8.7696    
  8.4386      8.7698      9.8464      13.807      23.903      42.037      67.952      98.820      129.15      151.72    
  151.73      151.72      136.28      110.01      79.815      52.022      30.702      17.327      11.012      9.0596    
  8.4295      8.4291      9.0592      11.012      17.327      30.700      52.021      79.819      110.02      136.29    
  129.16      136.25      129.15      110.01      84.205      57.881      35.846      20.638      12.433      9.3706    
  8.4494      8.1385      8.4484      9.3705      12.434      20.637      35.843      57.878      84.208      110.02    
  98.816      109.94      109.94      98.820      79.815      57.881      37.763      22.646      13.618      9.7168    
  8.4858      7.9305      7.9301      8.4854      9.7175      13.620      22.645      37.759      57.875      79.809    
  67.940      79.712      84.066      79.722      67.952      52.022      35.846      22.646      14.080      9.9580    
  8.5200      7.8083      7.5636      7.8083      8.5200      9.9588      14.083      22.649      35.846      52.015    
  42.036      51.942      57.740      57.743      51.948      42.037      30.702      20.638      13.618      9.9579    
  8.5339      7.7553      7.3566      7.3570      7.7553      8.5327      9.9576      13.622      20.646      30.707    
  23.911      30.684      35.779      37.671      35.776      30.677      23.903      17.327      12.433      9.7167    
  8.5200      7.7553      7.2911      7.1409      7.2918      7.7544      8.5165      9.7133      12.434      17.333    
  13.806      17.354      20.662      22.654      22.650      20.654      17.348      13.807      11.012      9.3705    
  8.4858      7.8083      7.3566      7.1409      7.1416      7.3578      7.8080      8.4820      9.3638      11.006    
  9.8371      11.050      12.507      13.708      14.172      13.706      12.507      11.056      9.8464      9.0596    
  8.4493      7.9305      7.5636      7.3569      7.2919      7.3579      7.5664      7.9339      8.4492      9.0534    
  8.7694      9.1029      9.4576      9.8401      10.102      10.103      9.8442      9.4643      9.1086      8.7697    
  8.4294      8.1385      7.9301      7.8083      7.7554      7.7545      7.8079      7.9339      8.1459      8.4353    
  8.4472      8.4860      8.5485      8.6229      8.6861      8.7126      8.6896      8.6263      8.5478      8.4799    
  8.4386      8.4290      8.4485      8.4854      8.5200      8.5327      8.5164      8.4819      8.4494      8.4353    
  8.7693      8.4860      8.2473      8.0825      7.9941      7.9617      7.9626      7.9944      8.0786      8.2400    
  8.4803      8.7697      9.0593      9.3705      9.7174      9.9588      9.9576      9.7133      9.3639      9.0535    
  9.8370      9.1028      8.5487      8.0825      7.7588      7.5816      7.5271      7.5808      7.7561      8.0790    
  8.5486      9.1090      9.8464      11.012      12.434      13.620      14.083      13.622      12.434      11.006    
  13.806      11.050      9.4577      8.6229      7.9940      7.5816      7.3874      7.3867      7.5804      7.9943    
  8.6266      9.4643      11.056      13.807      17.327      20.637      22.645      22.649      20.646      17.333    
  23.911      17.355      12.507      9.8400      8.6860      7.9617      7.5272      7.3867      7.5264      7.9625    
  8.6896      9.8435      12.506      17.348      23.903      30.700      35.842      37.759      35.846      30.707    
  42.036      30.684      20.662      13.708      10.102      8.7126      7.9626      7.5807      7.5804      7.9626    
  8.7139      10.102      13.705      20.655      30.679      42.037      52.021      57.878      57.875      52.015    
  67.940      51.942      35.779      22.654      14.172      10.103      8.6895      7.9943      7.7561      7.9944    
  8.6896      10.102      14.170      22.650      35.779      51.949      67.952      79.819      84.208      79.809    
  98.816      79.712      57.740      37.671      22.650      13.706      9.8441      8.6263      8.0787      8.0790    
  8.6266      9.8435      13.705      22.650      37.674      57.745      79.718      98.820      110.02      110.02    
  129.16      109.94      84.066      57.743      35.775      20.654      12.507      9.4644      8.5479      8.2400    
  8.5485      9.4642      12.506      20.655      35.779      57.745      84.063      109.93      129.15      136.29    
  151.73      136.25      109.94      79.721      51.948      30.677      17.348      11.056      9.1086      8.4799    
  8.4803      9.1090      11.056      17.348      30.679      51.950      79.718      109.93      136.24      151.72    
  152.19      144.22      122.77      93.925      64.553      39.923      22.767      13.310      9.6594      8.6425    
  8.3191      8.6427      9.6595      13.310      22.767      39.923      64.553      93.925      122.77      144.22    
  144.22      144.22      129.54      104.56      75.831      49.393      29.172      16.579      10.715      8.9185    
  8.3030      8.3026      8.9181      10.715      16.580      29.171      49.392      75.834      104.57      129.55    
  122.78      129.52      122.77      104.56      80.005      54.955      34.031      19.672      12.012      9.1986    
  8.3173      8.0150      8.3164      9.1984      12.013      19.672      34.028      54.952      80.008      104.57    
  93.922      104.51      104.51      93.925      75.831      54.955      35.844      21.553      13.102      9.5050    
  8.3497      7.8103      7.8100      8.3493      9.5056      13.103      21.553      35.841      54.949      75.825    
  64.541      75.752      79.899      75.761      64.553      49.393      34.031      21.553      13.527      9.7193    
  8.3814      7.6905      7.4544      7.6906      8.3814      9.7200      13.530      21.556      34.031      49.386    
  39.922      49.341      54.859      54.862      49.346      39.923      29.172      19.672      13.102      9.7192    
  8.3944      7.6387      7.2543      7.2547      7.6388      8.3933      9.7189      13.105      19.679      29.177    
  22.775      29.180      34.012      35.808      34.008      29.174      22.767      16.580      12.012      9.5049    
  8.3814      7.6387      7.1911      7.0468      7.1918      7.6379      8.3782      9.5018      12.013      16.585    
  13.309      16.629      19.739      21.617      21.614      19.732      16.623      13.310      10.715      9.1985    
  8.3497      7.6906      7.2543      7.0468      7.0475      7.2554      7.6903      8.3461      9.1922      10.710    
  9.6507      10.772      12.123      13.242      13.675      13.239      12.123      10.778      9.6594      8.9185    
  8.3173      7.8104      7.4543      7.2546      7.1919      7.2555      7.4569      7.8135      8.3172      8.9127    
  8.6423      8.9782      9.3174      9.6722      9.9136      9.9148      9.6761      9.3236      8.9835      8.6425    
  8.3029      8.0150      7.8100      7.6906      7.6388      7.6380      7.6902      7.8135      8.0220      8.3084    
  8.3271      8.3741      8.4449      8.5262      8.5938      8.6217      8.5970      8.5293      8.4442      8.3684    
  8.3190      8.3026      8.3165      8.3493      8.3814      8.3933      8.3781      8.3461      8.3173      8.3084    
  8.6422      8.3740      8.1507      7.9987      7.9189      7.8907      7.8916      7.9193      7.9951      8.1438    
  8.3688      8.6426      8.9181      9.1984      9.5055      9.7200      9.7189      9.5017      9.1923      8.9127    
  9.6506      8.9781      8.4450      7.9987      7.6906      7.5226      7.4711      7.5219      7.6881      7.9955    
  8.4450      8.9839      9.6595      10.715      12.013      13.103      13.530      13.105      12.013      10.710    
  13.309      10.772      9.3175      8.5262      7.9188      7.5226      7.3365      7.3359      7.5215      7.9192    
  8.5297      9.3236      10.777      13.310      16.580      19.672      21.553      21.556      19.679      16.585    
  22.775      16.629      12.123      9.6722      8.5938      7.8908      7.4712      7.3359      7.4704      7.8915    
  8.5970      9.6754      12.122      16.623      22.767      29.171      34.028      35.841      34.031      29.177    
  39.922      29.180      19.739      13.242      9.9137      8.6217      7.8916      7.5219      7.5215      7.8915    
  8.6228      9.9140      13.238      19.732      29.175      39.923      49.392      54.952      54.949      49.386    
  64.541      49.341      34.012      21.617      13.675      9.9148      8.5970      7.9192      7.6881      7.9193    
  8.5971      9.9140      13.672      21.614      34.012      49.348      64.553      75.834      80.008      75.826    
  93.922      75.752      54.859      35.808      21.614      13.239      9.6760      8.5294      7.9952      7.9955    
  8.5297      9.6754      13.238      21.614      35.811      54.864      75.757      93.925      104.57      104.57    
  122.78      104.51      79.899      54.862      34.008      19.732      12.123      9.3236      8.4443      8.1438    
  8.4449      9.3235      12.122      19.732      34.012      54.864      79.896      104.50      122.77      129.55    
  144.22      129.52      104.51      75.761      49.346      29.174      16.623      10.778      8.9835      8.3683    
  8.3687      8.9840      10.777      16.623      29.175      49.348      75.757      104.50      129.51      144.22    
  130.75      123.91      105.48      80.638      55.334      34.226      19.750      12.020      9.1754      8.2944    
  7.9940      8.2945      9.1755      12.020      19.750      34.226      55.334      80.638      105.48      123.91    
  123.91      123.91      111.30      89.788      65.017      42.283      25.077      14.616      9.9508      8.5307    
  7.9572      7.9568      8.5303      9.9512      14.616      25.076      42.282      65.020      89.796      111.31    
  105.48      111.29      105.48      89.788      68.604      47.031      29.154      17.116      10.923      8.7435    
  7.9540      7.6768      7.9531      8.7434      10.924      17.116      29.151      47.029      68.606      89.795    
  80.635      89.773      89.774      80.638      65.017      47.031      30.680      18.652      11.757      8.9532    
  7.9728      7.4799      7.4796      7.9724      8.9536      11.757      18.651      30.678      47.026      65.013    
  55.325      65.004      68.588      65.012      55.334      42.282      29.154      18.652      12.086      9.0998    
  7.9956      7.3652      7.1529      7.3653      7.9957      9.1003      12.087      18.654      29.154      42.277    
  34.226      42.307      47.059      47.061      42.311      34.226      25.077      17.116      11.757      9.0998    
  8.0056      7.3154      6.9710      6.9714      7.3156      8.0048      9.0995      11.759      17.122      25.082    
  19.757      25.156      29.265      30.799      29.263      25.151      19.750      14.616      10.923      8.9531    
  7.9957      7.3154      6.9139      6.7856      6.9145      7.3149      7.9931      8.9507      10.924      14.621    
  12.020      14.726      17.302      18.871      18.868      17.296      14.722      12.020      9.9509      8.7435    
  7.9728      7.3652      6.9710      6.7856      6.7861      6.9719      7.3649      7.9699      8.7384      9.9464    
  9.1683      10.061      11.137      12.038      12.388      12.036      11.137      10.066      9.1755      8.5307    
  7.9539      7.4800      7.1528      6.9714      6.9146      6.9719      7.1547      7.4825      7.9539      8.5259    
  8.2942      8.6377      8.9538      9.2467      9.4398      9.4406      9.2497      8.9587      8.6421      8.2944    
  7.9571      7.6768      7.4796      7.3653      7.3157      7.3149      7.3648      7.4824      7.6825      7.9616    
  8.0006      8.0708      8.1647      8.2650      8.3446      8.3762      8.3471      8.2675      8.1641      8.0661    
  7.9940      7.9568      7.9532      7.9724      7.9957      8.0048      7.9930      7.9699      7.9540      7.9616    
  8.2941      8.0707      7.8918      7.7767      7.7219      7.7057      7.7064      7.7222      7.7738      7.8862    
  8.0665      8.2945      8.5304      8.7434      8.9535      9.1003      9.0995      8.9507      8.7385      8.5260    
  9.1682      8.6377      8.1648      7.7767      7.5137      7.3728      7.3302      7.3724      7.5119      7.7741    
  8.1648      8.6424      9.1755      9.9513      10.924      11.757      12.088      11.759      10.924      9.9464    
  12.020      10.061      8.9539      8.2650      7.7218      7.3728      7.2105      7.2100      7.3720      7.7222    
  8.2678      8.9588      10.065      12.020      14.616      17.116      18.651      18.654      17.122      14.621    
  19.757      14.726      11.137      9.2467      8.3446      7.7057      7.3303      7.2100      7.3295      7.7062    
  8.3471      9.2492      11.136      14.722      19.750      25.076      29.151      30.678      29.154      25.082    
  34.226      25.156      17.302      12.038      9.4398      8.3763      7.7064      7.3724      7.3720      7.7062    
  8.3771      9.4401      12.035      17.297      25.152      34.226      42.282      47.029      47.026      42.277    
  55.325      42.307      29.265      18.871      12.388      9.4406      8.3471      7.7222      7.5118      7.7222    
  8.3472      9.4401      12.387      18.869      29.265      42.312      55.334      65.020      68.606      65.013    
  80.635      65.004      47.059      30.799      18.868      12.036      9.2496      8.2675      7.7739      7.7741    
  8.2678      9.2492      12.035      18.869      30.801      47.063      65.009      80.638      89.796      89.795    
  105.48      89.773      68.588      47.061      29.263      17.296      11.137      8.9588      8.1641      7.8861    
  8.1647      8.9587      11.136      17.297      29.265      47.063      68.585      89.766      105.48      111.31    
  123.91      111.29      89.774      65.012      42.311      25.151      14.722      10.066      8.6421      8.0660    
  8.0664      8.6425      10.066      14.722      25.152      42.312      65.009      89.766      111.28      123.91    
  101.59      96.267      81.895      62.502      42.810      26.606      15.843      10.432      8.5588      7.8087    
  7.5463      7.8088      8.5589      10.432      15.842      26.606      42.810      62.502      81.895      96.267    
  96.270      96.267      86.424      69.618      50.284      32.692      19.684      12.136      9.0151      7.9808    
  7.4771      7.4768      7.9805      9.0155      12.137      19.683      32.692      50.286      69.624      86.431    
  81.900      86.442      81.895      69.618      53.059      36.307      22.674      13.837      9.5838      8.1326    
  7.4440      7.2062      7.4433      8.1324      9.5844      13.837      22.673      36.305      53.060      69.623    
  62.501      69.661      69.662      62.503      50.284      36.307      23.803      14.901      10.088      8.2469    
  7.4376      7.0166      7.0163      7.4373      8.2470      10.088      14.900      23.801      36.303      50.281    
  42.804      50.363      53.169      50.368      42.810      32.692      22.674      14.901      10.291      8.3190    
  7.4432      6.9048      6.7275      6.9050      7.4433      8.3192      10.292      14.902      22.674      32.689    
  26.605      32.822      36.506      36.508      32.825      26.606      19.684      13.837      10.088      8.3189    
  7.4470      6.8554      6.5683      6.5687      6.8558      7.4465      8.3187      10.090      13.841      19.687    
  15.847      19.860      22.966      24.134      22.964      19.857      15.842      12.136      9.5838      8.2468    
  7.4433      6.8554      6.5184      6.4122      6.5190      6.8552      7.4416      8.2452      9.5844      12.140    
  10.431      12.332      14.188      15.335      15.333      14.184      12.329      10.432      9.0152      8.1326    
  7.4377      6.9048      6.5683      6.4122      6.4125      6.5688      6.9046      7.4357      8.1291      9.0121    
  8.5537      9.2014      9.9440      10.568      10.812      10.567      9.9440      9.2048      8.5588      7.9808    
  7.4440      7.0166      6.7275      6.5687      6.5191      6.5688      6.7285      7.0182      7.4439      7.9774    
  7.8085      8.1572      8.4764      8.7243      8.8709      8.8714      8.7261      8.4797      8.1602      7.8087    
  7.4771      7.2062      7.0163      6.9049      6.8558      6.8552      6.9045      7.0182      7.2102      7.4802    
  7.5509      7.6541      7.7789      7.9034      7.9978      8.0339      7.9994      7.9050      7.7783      7.6508    
  7.5463      7.4768      7.4433      7.4372      7.4433      7.4465      7.4416      7.4357      7.4440      7.4802    
  7.8084      7.6541      7.5407      7.4788      7.4595      7.4602      7.4608      7.4599      7.4769      7.5368    
  7.6511      7.8088      7.9805      8.1324      8.2470      8.3192      8.3187      8.2452      8.1292      7.9774    
  8.5536      8.1571      7.7790      7.4788      7.2827      7.1815      7.1520      7.1815      7.2816      7.4771    
  7.7789      8.1605      8.5589      9.0155      9.5844      10.088      10.292      10.090      9.5844      9.0121    
  10.431      9.2014      8.4765      7.9035      7.4595      7.1815      7.0547      7.0545      7.1811      7.4598    
  7.9053      8.4798      9.2044      10.432      12.137      13.837      14.900      14.902      13.841      12.140    
  15.847      12.332      9.9440      8.7243      7.9977      7.4603      7.1520      7.0544      7.1514      7.4604    
  7.9994      8.7260      9.9434      12.328      15.842      19.683      22.673      23.801      22.674      19.687    
  26.605      19.860      14.188      10.568      8.8709      8.0339      7.4608      7.1815      7.1811      7.4604    
  8.0344      8.8712      10.566      14.184      19.857      26.606      32.692      36.305      36.303      32.689    
  42.804      32.821      22.966      15.335      10.813      8.8714      7.9994      7.4598      7.2816      7.4598    
  7.9995      8.8712      10.811      15.334      22.966      32.825      42.810      50.286      53.060      50.281    
  62.500      50.363      36.506      24.134      15.333      10.566      8.7261      7.9050      7.4769      7.4771    
  7.9053      8.7259      10.566      15.334      24.136      36.509      50.366      62.503      69.624      69.623    
  81.900      69.661      53.169      36.508      22.964      14.184      9.9440      8.4797      7.7783      7.5367    
  7.7789      8.4798      9.9434      14.184      22.966      36.509      53.167      69.656      81.895      86.431    
  96.270      86.442      69.662      50.368      32.825      19.857      12.329      9.2048      8.1602      7.6508    
  7.6511      8.1605      9.2044      12.328      19.857      32.825      50.366      69.656      86.436      96.266    
  71.327      67.561      57.397      43.730      30.021      19.064      12.193      9.0478      7.9144      7.2834    
  7.0699      7.2835      7.9144      9.0478      12.193      19.064      30.021      43.730      57.397      67.561    
  67.563      67.561      60.585      48.698      35.134      23.050      14.497      9.9129      8.1672      7.3749    
  6.9630      6.9628      7.3747      8.1676      9.9136      14.498      23.050      35.135      48.701      60.589    
  57.400      60.625      57.397      48.698      37.044      25.452      16.348      10.823      8.4079      7.4589    
  6.8910      6.7014      6.8904      7.4587      8.4084      10.823      16.348      25.451      37.044      48.701    
  43.729      48.800      48.801      43.730      35.134      25.452      17.057      11.412      8.6202      7.5188    
  6.8493      6.5146      6.5144      6.8489      7.5188      8.6203      11.411      17.056      25.450      35.133    
  30.017      35.305      37.280      35.308      30.021      23.050      16.348      11.412      8.7077      7.5487    
  6.8296      6.4003      6.2624      6.4005      6.8297      7.5486      8.7080      11.412      16.348      23.048    
  19.063      23.283      25.821      25.822      23.285      19.064      14.497      10.823      8.6201      7.5486    
  6.8241      6.3475      6.1233      6.1237      6.3479      6.8240      7.5484      8.6212      10.825      14.499    
  12.195      14.771      16.819      17.599      16.818      14.770      12.193      9.9130      8.4078      7.5188    
  6.8296      6.3475      6.0795      5.9962      6.0800      6.3475      6.8288      7.5180      8.4084      9.9151    
  9.0475      10.194      11.340      12.062      12.061      11.338      10.193      9.0478      8.1673      7.4589    
  6.8493      6.4003      6.1233      5.9962      5.9963      6.1235      6.4001      6.8483      7.4570      8.1655    
  7.9113      8.4329      8.9196      9.3052      9.4547      9.3043      8.9196      8.4350      7.9144      7.3749    
  6.8909      6.5147      6.2624      6.1237      6.0800      6.1235      6.2628      6.5155      6.8909      7.3729    
  7.2833      7.6261      7.9463      8.1934      8.3274      8.3275      8.1942      7.9480      7.6278      7.2834    
  6.9630      6.7014      6.5144      6.4004      6.3480      6.3476      6.4000      6.5154      6.7037      6.9648    
  7.0725      7.2096      7.3621      7.5060      7.6109      7.6499      7.6117      7.5067      7.3616      7.2076    
  7.0699      6.9628      6.8904      6.8489      6.8296      6.8240      6.8288      6.8482      6.8910      6.9648    
  7.2832      7.2095      7.1682      7.1619      7.1781      7.1951      7.1954      7.1784      7.1608      7.1660    
  7.2079      7.2834      7.3747      7.4587      7.5187      7.5486      7.5485      7.5180      7.4571      7.3730    
  7.9113      7.6261      7.3622      7.1619      7.0386      6.9796      6.9635      6.9798      7.0383      7.1611    
  7.3621      7.6280      7.9144      8.1676      8.4083      8.6203      8.7081      8.6212      8.4083      8.1655    
  9.0475      8.4330      7.9464      7.5061      7.1780      6.9796      6.8915      6.8914      6.9794      7.1782    
  7.5071      7.9481      8.4346      9.0478      9.9136      10.823      11.411      11.412      10.825      9.9150    
  12.195      10.194      8.9195      8.1934      7.6109      7.1951      6.9635      6.8914      6.9630      7.1950    
  7.6117      8.1942      8.9191      10.192      12.193      14.498      16.348      17.056      16.348      14.499    
  19.064      14.771      11.340      9.3052      8.3274      7.6499      7.1955      6.9798      6.9794      7.1950    
  7.6500      8.3276      9.3042      11.337      14.769      19.064      23.050      25.451      25.450      23.048    
  30.017      23.283      16.819      12.062      9.4547      8.3276      7.6117      7.1783      7.0382      7.1783    
  7.6117      8.3276      9.4544      12.061      16.819      23.285      30.021      35.135      37.044      35.133    
  43.729      35.305      25.821      17.599      12.061      9.3043      8.1941      7.5068      7.1609      7.1611    
  7.5071      8.1942      9.3041      12.061      17.600      25.823      35.307      43.730      48.701      48.701    
  57.400      48.800      37.280      25.822      16.818      11.337      8.9195      7.9481      7.3617      7.1660    
  7.3621      7.9481      8.9191      11.337      16.819      25.823      37.279      48.798      57.397      60.589    
  67.563      60.625      48.801      35.308      23.285      14.770      10.193      8.4350      7.6278      7.2076    
  7.2078      7.6281      8.4347      10.192      14.769      23.285      35.307      48.797      60.621      67.561    
  45.160      42.767      36.341      27.813      19.497      13.203      9.6062      8.0902      7.2932      6.8013    
  6.6405      6.8014      7.2932      8.0902      9.6062      13.203      19.497      27.813      36.341      42.767    
  42.768      42.767      38.335      30.852      22.492      15.349      10.660      8.4043      7.4396      6.8089    
  6.4970      6.4968      6.8087      7.4399      8.4049      10.660      15.349      22.492      30.853      38.337    
  36.342      38.391      36.341      30.852      23.624      16.677      11.551      8.7338      7.5403      6.8179    
  6.3835      6.2432      6.3831      6.8177      7.5407      8.7342      11.551      16.676      23.624      30.853    
  27.812      30.997      30.997      27.813      22.492      16.677      11.900      8.9568      7.5947      6.8223    
  6.3024      6.0543      6.0542      6.3022      6.8221      7.5946      8.9566      11.900      16.676      22.491    
  19.496      22.730      23.952      22.731      19.497      15.349      11.551      8.9569      7.6136      6.8228    
  6.2539      5.9319      5.8310      5.9321      6.2539      6.8226      7.6134      8.9569      11.551      15.348    
  13.203      15.659      17.170      17.171      15.659      13.203      10.660      8.7338      7.5947      6.8228    
  6.2377      5.8724      5.7053      5.7055      5.8728      6.2378      6.8227      7.5951      8.7349      10.661    
  9.6072      11.006      12.154      12.598      12.154      11.005      9.6062      8.4043      7.5403      6.8222    
  6.2539      5.8724      5.6650      5.6010      5.6653      5.8726      6.2537      6.8220      7.5407      8.4053    
  8.0899      8.7532      9.3786      9.7719      9.7715      9.3778      8.7528      8.0902      7.4396      6.8179    
  6.3024      5.9319      5.7052      5.6010      5.6010      5.7052      5.9318      6.3021      6.8172      7.4389    
  7.2918      7.7728      8.1779      8.4478      8.5444      8.4473      8.1779      7.7737      7.2932      6.8088    
  6.3835      6.0543      5.8310      5.7055      5.6653      5.7052      5.8309      6.0545      6.3835      6.8080    
  6.8012      7.1266      7.4320      7.6699      7.8001      7.8000      7.6700      7.4326      7.1273      6.8013    
  6.4970      6.2432      6.0542      5.9321      5.8729      5.8726      5.9318      6.0545      6.2442      6.4977    
  6.6416      6.8073      6.9793      7.1339      7.2427      7.2821      7.2429      7.1340      6.9790      6.8065    
  6.6405      6.4968      6.3832      6.3022      6.2539      6.2378      6.2537      6.3020      6.3835      6.4977    
  6.8012      6.8073      6.8330      6.8752      6.9205      6.9501      6.9504      6.9207      6.8748      6.8320    
  6.8066      6.8014      6.8087      6.8177      6.8221      6.8226      6.8227      6.8220      6.8172      6.8080    
  7.2917      7.1266      6.9794      6.8752      6.8185      6.7965      6.7921      6.7969      6.8186      6.8749    
  6.9794      7.1275      7.2932      7.4399      7.5406      7.5946      7.6134      7.5951      7.5406      7.4389    
  8.0899      7.7728      7.4321      7.1339      6.9204      6.7965      6.7437      6.7437      6.7966      6.9206    
  7.1342      7.4327      7.7735      8.0902      8.4049      8.7342      8.9566      8.9569      8.7348      8.4053    
  9.6073      8.7533      8.1779      7.6699      7.2426      6.9502      6.7921      6.7437      6.7917      6.9499    
  7.2429      7.6702      8.1775      8.7523      9.6062      10.660      11.551      11.900      11.551      10.661    
  13.204      11.006      9.3785      8.4477      7.8001      7.2821      6.9504      6.7969      6.7966      6.9499    
  7.2821      7.8002      8.4474      9.3775      11.005      13.203      15.349      16.676      16.676      15.348    
  19.496      15.658      12.154      9.7719      8.5445      7.8000      7.2428      6.9207      6.8186      6.9206    
  7.2429      7.8002      8.5446      9.7718      12.154      15.659      19.497      22.492      23.624      22.491    
  27.812      22.730      17.170      12.598      9.7716      8.4473      7.6700      7.1340      6.8748      6.8750    
  7.1342      7.6702      8.4474      9.7718      12.599      17.171      22.730      27.813      30.853      30.853    
  36.342      30.997      23.952      17.171      12.153      9.3778      8.1779      7.4326      6.9791      6.8320    
  6.9793      7.4327      8.1776      9.3775      12.154      17.171      23.952      30.996      36.341      38.337    
  42.768      38.391      30.997      22.731      15.659      11.005      8.7529      7.7738      7.1273      6.8064    
  6.8066      7.1275      7.7735      8.7523      11.005      15.659      22.730      30.996      38.390      42.767    
  26.020      24.707      21.223      16.731      12.580      9.7039      8.2079      7.3810      6.7725      6.4191    
  6.3067      6.4191      6.7725      7.3810      8.2078      9.7039      12.580      16.732      21.223      24.707    
  24.707      24.707      22.281      18.268      13.966      10.544      8.5174      7.5156      6.8128      6.3483    
  6.1285      6.1284      6.3481      6.8130      7.5161      8.5178      10.545      13.966      18.268      22.281    
  21.224      22.343      21.223      18.268      14.502      11.090      8.7908      7.5937      6.8353      6.2872    