unknown system                          
   1.00000000000000     
     2.330000    0.000000    0.000000
    -1.165000    2.017839    0.000000
     0.000000    0.000000    4.059000
   Fe
     2
Direct
  0.000000  0.000000  0.000000
  0.333333  0.666667  0.500000
 
   20   20   36
 0.16011505408E+03 0.15172137244E+03 0.12914729762E+03 0.98819971224E+02 0.67952192713E+02
 0.42036907548E+02 0.23902859682E+02 0.13806788780E+02 0.98463042437E+01 0.87696169430E+01
 0.84385778345E+01 0.87697872002E+01 0.98464499507E+01 0.13806763138E+02 0.23902735647E+02
 0.42036866423E+02 0.67952291245E+02 0.98820092585E+02 0.12914732690E+03 0.15172133903E+03
 0.15172713528E+03 0.15172127937E+03 0.13627529662E+03 0.11000771620E+03 0.79815022253E+02
 0.52021874417E+02 0.30701954553E+02 0.17327182070E+02 0.11011957442E+02 0.90596209631E+01
 0.84294817046E+01 0.84290848178E+01 0.90592183924E+01 0.11012350049E+02 0.17327276505E+02
 0.30700401962E+02 0.52020578808E+02 0.79818787380E+02 0.11001864186E+03 0.13628826619E+03
 0.12915591325E+03 0.13625108759E+03 0.12914732135E+03 0.11000780823E+03 0.84204796233E+02
 0.57880747154E+02 0.35845980888E+02 0.20638098948E+02 0.12432776390E+02 0.93706240949E+01
 0.84493564784E+01 0.81384732393E+01 0.84484356708E+01 0.93704991713E+01 0.12433566143E+02
 0.20637347786E+02 0.35842510028E+02 0.57878085828E+02 0.84208206712E+02 0.11001736375E+03
 0.98816257581E+02 0.10993610554E+03 0.10993740664E+03 0.98820147864E+02 0.79814989860E+02
 0.57880669132E+02 0.37762910783E+02 0.22645649822E+02 0.13618388028E+02 0.97167849021E+01
 0.84857823306E+01 0.79304533988E+01 0.79300854104E+01 0.84854162755E+01 0.97174699517E+01
 0.13619588764E+02 0.22645275090E+02 0.37759440328E+02 0.57874846472E+02 0.79809156120E+02
 0.67940164634E+02 0.79711953659E+02 0.84066380394E+02 0.79721525017E+02 0.67952200472E+02
 0.52021719102E+02 0.35846021245E+02 0.22645707201E+02 0.14080345625E+02 0.99579691502E+01
 0.85199626673E+01 0.78082630339E+01 0.75636398634E+01 0.78083492303E+01 0.85200489689E+01
 0.99588234298E+01 0.14083024007E+02 0.22649110095E+02 0.35846050290E+02 0.52014782552E+02
 0.42035630736E+02 0.51942492159E+02 0.57739675644E+02 0.57742888962E+02 0.51948233699E+02
 0.42036823444E+02 0.30701960812E+02 0.20638220309E+02 0.13618339750E+02 0.99579318012E+01
 0.85339016412E+01 0.77553015750E+01 0.73566224916E+01 0.73569789322E+01 0.77553263057E+01
 0.85326774877E+01 0.99575877424E+01 0.13622188081E+02 0.20645657834E+02 0.30707433905E+02
 0.23911321997E+02 0.30684178467E+02 0.35779023299E+02 0.37670798115E+02 0.35775536871E+02
 0.30677224512E+02 0.23902797673E+02 0.17327264659E+02 0.12432755411E+02 0.97166985798E+01
 0.85200207483E+01 0.77553254850E+01 0.72911034444E+01 0.71408970638E+01 0.72918185676E+01
 0.77544178912E+01 0.85165087073E+01 0.97133076740E+01 0.12433566143E+02 0.17333400033E+02
 0.13806382516E+02 0.17354471313E+02 0.20662395705E+02 0.22653883446E+02 0.22650078804E+02
 0.20654141058E+02 0.17348375128E+02 0.13806773969E+02 0.11012006620E+02 0.93705487629E+01
 0.84858188707E+01 0.78083229206E+01 0.73565509533E+01 0.71408770650E+01 0.71416049588E+01
 0.73578339974E+01 0.78079686080E+01 0.84819618929E+01 0.93638054326E+01 0.11006173171E+02
 0.98370603485E+01 0.11050045821E+02 0.12506665172E+02 0.13708355446E+02 0.14172246246E+02
 0.13705779074E+02 0.12506644566E+02 0.11056134479E+02 0.98463686131E+01 0.90596090267E+01
 0.84493182207E+01 0.79305156615E+01 0.75635862861E+01 0.73569315755E+01 0.72919066965E+01
 0.73578581789E+01 0.75663768728E+01 0.79339204152E+01 0.84492389230E+01 0.90534221369E+01
 0.87693879855E+01 0.91028691275E+01 0.94576185769E+01 0.98400698060E+01 0.10101571675E+02
 0.10102809430E+02 0.98442342726E+01 0.94642975347E+01 0.91086059078E+01 0.87696737495E+01
 0.84294119798E+01 0.81384963499E+01 0.79301164468E+01 0.78083043282E+01 0.77553974268E+01
 0.77544651023E+01 0.78078638193E+01 0.79338891890E+01 0.81459468149E+01 0.84352802880E+01
 0.84471641845E+01 0.84860172875E+01 0.85485410573E+01 0.86228711369E+01 0.86861150012E+01
 0.87126034137E+01 0.86895753058E+01 0.86262995861E+01 0.85478359287E+01 0.84799358079E+01
 0.84385589143E+01 0.84290498273E+01 0.84485149686E+01 0.84854011863E+01 0.85200207483E+01
 0.85327030161E+01 0.85164224057E+01 0.84819102636E+01 0.84493564784E+01 0.84353150223E+01
 0.87692652080E+01 0.84859871087E+01 0.82473310113E+01 0.80824667769E+01 0.79940567754E+01
 0.79617173562E+01 0.79625790671E+01 0.79943604715E+01 0.80786405233E+01 0.82399877771E+01
 0.84803246051E+01 0.87697212292E+01 0.90592572918E+01 0.93705198756E+01 0.97173775876E+01
 0.99588157536E+01 0.99576174153E+01 0.97133016322E+01 0.93639014689E+01 0.90534729727E+01
 0.98369623480E+01 0.91028309764E+01 0.85486588654E+01 0.80824834457E+01 0.77588337494E+01
 0.75815873564E+01 0.75271231212E+01 0.75807956842E+01 0.77561270803E+01 0.80789922582E+01
 0.85485914744E+01 0.91090051225E+01 0.98464163196E+01 0.11012387242E+02 0.12433510957E+02
 0.13619575437E+02 0.14083130341E+02 0.13622223033E+02 0.12433531936E+02 0.11006161186E+02
 0.13806422273E+02 0.11050072640E+02 0.94577093287E+01 0.86228838302E+01 0.79939545710E+01
 0.75815899475E+01 0.73873691974E+01 0.73867066451E+01 0.75804291768E+01 0.79943456992E+01
 0.86266290312E+01 0.94642648274E+01 0.11055767972E+02 0.13806788084E+02 0.17327303894E+02
 0.20637351129E+02 0.22645340694E+02 0.22649118320E+02 0.20645539817E+02 0.17333344833E+02
 0.23911446032E+02 0.17354531234E+02 0.12506620920E+02 0.98400328990E+01 0.86860406136E+01
 0.79617373797E+01 0.75272017315E+01 0.73866855899E+01 0.75263675755E+01 0.79625444322E+01
 0.86895753058E+01 0.98435179578E+01 0.12505841314E+02 0.17348311606E+02 0.23902797673E+02
 0.30700408025E+02 0.35842480984E+02 0.37759392878E+02 0.35845980888E+02 0.30707433709E+02
 0.42035697534E+02 0.30684164834E+02 0.20662274351E+02 0.13708309015E+02 0.10101618328E+02
 0.87126446808E+01 0.79626302934E+01 0.75807464409E+01 0.75803773425E+01 0.79625756351E+01
 0.87138504898E+01 0.10101998631E+02 0.13704569061E+02 0.20654970450E+02 0.30678761799E+02
 0.42036849117E+02 0.52020509088E+02 0.57878044141E+02 0.57874882807E+02 0.52014868147E+02
 0.67940119072E+02 0.51942382758E+02 0.35778965453E+02 0.22653916550E+02 0.14172355253E+02
 0.10102828341E+02 0.86895279041E+01 0.79943210784E+01 0.77561020045E+01 0.79944085103E+01
 0.86896022917E+01 0.10101970890E+02 0.14169562207E+02 0.22650459426E+02 0.35779024162E+02
 0.51949469387E+02 0.67952253443E+02 0.79818824865E+02 0.84208283523E+02 0.79809225997E+02
 0.98816176378E+02 0.79711872359E+02 0.57739729153E+02 0.37670913015E+02 0.22650121704E+02
 0.13705724183E+02 0.98441448453E+01 0.86263121691E+01 0.80786885995E+01 0.80790236657E+01
 0.86266289208E+01 0.98434654375E+01 0.13704560600E+02 0.22650469222E+02 0.37674265689E+02
 0.57745448121E+02 0.79717730171E+02 0.98820188023E+02 0.11001867744E+03 0.11001730730E+03
 0.12915588397E+03 0.10993617683E+03 0.84066460876E+02 0.57742961433E+02 0.35775478162E+02
 0.20654037211E+02 0.12506620920E+02 0.94643699475E+01 0.85479033197E+01 0.82399521503E+01
 0.85485410573E+01 0.94642464883E+01 0.12505861920E+02 0.20654987957E+02 0.35779023299E+02
 0.57745467082E+02 0.84062840132E+02 0.10992654451E+03 0.12914732135E+03 0.13628812000E+03
 0.15172714982E+03 0.13625126261E+03 0.10993742658E+03 0.79721444581E+02 0.51948160134E+02
 0.30677177445E+02 0.17348436758E+02 0.11056216523E+02 0.91086083523E+01 0.84798579978E+01
 0.84802769738E+01 0.91090457181E+01 0.11055823197E+02 0.17348313315E+02 0.30678728364E+02
 0.51949505222E+02 0.79717731035E+02 0.10992649316E+03 0.13623823585E+03 0.15172126049E+03
 0.15218819948E+03 0.14421821302E+03 0.12276923327E+03 0.93925184529E+02 0.64552640491E+02
 0.39923155673E+02 0.22767226118E+02 0.13309654354E+02 0.96593759536E+01 0.86424928026E+01
 0.83190621004E+01 0.86426567576E+01 0.96595160544E+01 0.13309628869E+02 0.22767105066E+02
 0.39923113935E+02 0.64552733556E+02 0.93925300681E+02 0.12276926185E+03 0.14421818147E+03
 0.14422360095E+03 0.14421812202E+03 0.12954205505E+03 0.10456320602E+03 0.75830950234E+02
 0.49392842572E+02 0.29172320165E+02 0.16579477945E+02 0.10714968646E+02 0.89184907977E+01
 0.83029922906E+01 0.83026064555E+01 0.89180988701E+01 0.10715367028E+02 0.16579645754E+02
 0.29170944385E+02 0.49391656995E+02 0.75834453276E+02 0.10457340154E+03 0.12955418000E+03
 0.12277729334E+03 0.12952322938E+03 0.12276925629E+03 0.10456329594E+03 0.80004894411E+02
 0.54954781274E+02 0.34031120713E+02 0.19672150750E+02 0.12012120485E+02 0.91985555702E+01
 0.83173198909E+01 0.80149908139E+01 0.83164202718E+01 0.91984172940E+01 0.12012894440E+02
 0.19671513975E+02 0.34027911015E+02 0.54952276481E+02 0.80008048195E+02 0.10457221516E+03
 0.93921729511E+02 0.10450647215E+03 0.10450768268E+03 0.93925357139E+02 0.75830918892E+02
 0.54954705108E+02 0.35843827553E+02 0.21552949612E+02 0.13101587057E+02 0.95049781296E+01
 0.83496968900E+01 0.78103300922E+01 0.78099742330E+01 0.83493259611E+01 0.95055856802E+01
 0.13102678503E+02 0.21552568281E+02 0.35840553238E+02 0.54949241792E+02 0.75825462626E+02
 0.64541424794E+02 0.75751746663E+02 0.79899022520E+02 0.75760682434E+02 0.64552648312E+02
 0.49392690936E+02 0.34031159741E+02 0.21553005543E+02 0.13527410211E+02 0.97192819865E+01
 0.83813577493E+01 0.76905365507E+01 0.74543697176E+01 0.76906391433E+01 0.83814417081E+01
 0.97200361330E+01 0.13529843313E+02 0.21556139451E+02 0.34031188283E+02 0.49386237515E+02
 0.39921988559E+02 0.49341041849E+02 0.54858581962E+02 0.54861591651E+02 0.49346409016E+02
 0.39923073504E+02 0.29172325971E+02 0.19672269111E+02 0.13101540364E+02 0.97192456888E+01
 0.83944291305E+01 0.76386919319E+01 0.72543283419E+01 0.72546916954E+01 0.76387728981E+01
 0.83933132409E+01 0.97189107567E+01 0.13105124297E+02 0.19679245211E+02 0.29177489241E+02
 0.22775136561E+02 0.29180284841E+02 0.34011603759E+02 0.35807662426E+02 0.34008375754E+02
 0.29173813264E+02 0.22767165649E+02 0.16579558657E+02 0.12012100376E+02 0.95048940936E+01
 0.83814139975E+01 0.76387150606E+01 0.71911438073E+01 0.70468100213E+01 0.71918430966E+01
 0.76379069460E+01 0.83781644409E+01 0.95017550859E+01 0.12012894440E+02 0.16585324658E+02
 0.13309242006E+02 0.16628743672E+02 0.19739362303E+02 0.21617225682E+02 0.21613681691E+02
 0.19731680627E+02 0.16623089518E+02 0.13309640177E+02 0.10715016588E+02 0.91984819199E+01
 0.83497321376E+01 0.76905946981E+01 0.72542588829E+01 0.70467906891E+01 0.70474563084E+01
 0.72554302088E+01 0.76902522804E+01 0.83461416539E+01 0.91921982973E+01 0.10709560686E+02
 0.96506995090E+01 0.10771944818E+02 0.12122751184E+02 0.13241781880E+02 0.13674697501E+02
 0.13239357775E+02 0.12122731037E+02 0.10777666457E+02 0.96594384769E+01 0.89184786965E+01
 0.83172825389E+01 0.78103909824E+01 0.74543178107E+01 0.72546457458E+01 0.71919288579E+01
 0.72554537182E+01 0.74568619342E+01 0.78135454032E+01 0.83172053223E+01 0.89126793906E+01
 0.86422703976E+01 0.89781727387E+01 0.93173689465E+01 0.96722397788E+01 0.99136211713E+01
 0.99147503760E+01 0.96760760358E+01 0.93235756480E+01 0.89835347738E+01 0.86425479259E+01
 0.83029245276E+01 0.80150139142E+01 0.78100046224E+01 0.76905952010E+01 0.76388419964E+01
 0.76379529156E+01 0.76901501907E+01 0.78135149024E+01 0.80219830335E+01 0.83084122950E+01
 0.83270935953E+01 0.83740768033E+01 0.84449120277E+01 0.85261866901E+01 0.85938267495E+01
 0.86216886259E+01 0.85970293671E+01 0.85293478272E+01 0.84442207945E+01 0.83683790616E+01
 0.83190438456E+01 0.83025727118E+01 0.83164974884E+01 0.83493107306E+01 0.83814139975E+01
 0.83933382984E+01 0.83780804821E+01 0.83460911757E+01 0.83173198909E+01 0.83084463143E+01
 0.86421507369E+01 0.83740471712E+01 0.81507077203E+01 0.79986855158E+01 0.79189472798E+01
 0.78907443499E+01 0.78915652732E+01 0.79192593762E+01 0.79951208077E+01 0.81438383675E+01
 0.83687556714E+01 0.86425922203E+01 0.89181366308E+01 0.91984371226E+01 0.95054955835E+01
 0.97200289995E+01 0.97189399209E+01 0.95017490251E+01 0.91922917763E+01 0.89127292525E+01
 0.96506040887E+01 0.89781351526E+01 0.84450268009E+01 0.79987019687E+01 0.76905510891E+01
 0.75225781234E+01 0.74711425684E+01 0.75218998298E+01 0.76880869658E+01 0.79954628734E+01
 0.84449611646E+01 0.89839211338E+01 0.96594831574E+01 0.10715403451E+02 0.12012840747E+02
 0.13102665740E+02 0.13529947109E+02 0.13105158227E+02 0.12012860855E+02 0.10709549166E+02
 0.13309280955E+02 0.10771970791E+02 0.93174573012E+01 0.85261994532E+01 0.79188477987E+01
 0.75225805298E+01 0.73364824335E+01 0.73358789573E+01 0.75215264306E+01 0.79192280427E+01
 0.85296866822E+01 0.93235626872E+01 0.10777293057E+02 0.13309653641E+02 0.16579672632E+02
 0.19671517134E+02 0.21552632144E+02 0.21556147383E+02 0.19679130008E+02 0.16585270823E+02
 0.22775257613E+02 0.16628802188E+02 0.12122707930E+02 0.96722039977E+01 0.85937543814E+01
 0.78907636117E+01 0.74712189961E+01 0.73358584291E+01 0.74704021983E+01 0.78914738128E+01
 0.85970293671E+01 0.96754390705E+01 0.12121945987E+02 0.16622953261E+02 0.22767165649E+02
 0.29170949989E+02 0.34027882474E+02 0.35840506988E+02 0.34031120713E+02 0.29177489039E+02
 0.39922053633E+02 0.29180271621E+02 0.19739243926E+02 0.13241736550E+02 0.99136666837E+01
 0.86217286410E+01 0.78916150461E+01 0.75218518892E+01 0.75214760836E+01 0.78915043240E+01
 0.86228252098E+01 0.99140346962E+01 0.13238255735E+02 0.19732395804E+02 0.29175174728E+02
 0.39923096840E+02 0.49391588896E+02 0.54952235977E+02 0.54949277454E+02 0.49386321053E+02
 0.64541380189E+02 0.49340935067E+02 0.34011547364E+02 0.21617257879E+02 0.13674803742E+02
 0.99147687235E+01 0.85969831885E+01 0.79192211979E+01 0.76880626521E+01 0.79192893454E+01
 0.85970555566E+01 0.99140075313E+01 0.13672253744E+02 0.21614068554E+02 0.34011604561E+02
 0.49347534392E+02 0.64552696772E+02 0.75834490062E+02 0.80008123218E+02 0.75825530755E+02
 0.93921650185E+02 0.75751667323E+02 0.54858634211E+02 0.35807774522E+02 0.21613723535E+02
 0.13239304246E+02 0.96759889470E+01 0.85293603981E+01 0.79951676246E+01 0.79954932374E+01
 0.85296864900E+01 0.96753877629E+01 0.13238247536E+02 0.21614078201E+02 0.35810937346E+02
 0.54864000619E+02 0.75757148090E+02 0.93925393965E+02 0.10457343615E+03 0.10457215984E+03
 0.12277726477E+03 0.10450654193E+03 0.79899101137E+02 0.54861662363E+02 0.34008318557E+02
 0.19731579390E+02 0.12122707930E+02 0.93236463985E+01 0.84442864309E+01 0.81438031582E+01
 0.84449120277E+01 0.93235450829E+01 0.12121966134E+02 0.19732412943E+02 0.34011603759E+02
 0.54864019082E+02 0.79895745253E+02 0.10449754901E+03 0.12276925629E+03 0.12955403703E+03
 0.14422361516E+03 0.12952340052E+03 0.10450770229E+03 0.75760603805E+02 0.49346337206E+02
 0.29173767443E+02 0.16623149444E+02 0.10777746328E+02 0.89835372910E+01 0.83683029672E+01
 0.83687092090E+01 0.89839612371E+01 0.10777346957E+02 0.16622954671E+02 0.29175142127E+02
 0.49347569364E+02 0.75757148801E+02 0.10449749885E+03 0.12951122138E+03 0.14421810468E+03
 0.13074597544E+03 0.12390898111E+03 0.10547829230E+03 0.80638160745E+02 0.55334112539E+02
 0.34226402032E+02 0.19750085569E+02 0.12020341028E+02 0.91754145701E+01 0.82943871753E+01
 0.79940444127E+01 0.82945345579E+01 0.91755402448E+01 0.12020316700E+02 0.19749973132E+02
 0.34226358951E+02 0.55334190920E+02 0.80638262755E+02 0.10547831884E+03 0.12390895449E+03
 0.12391336216E+03 0.12390889610E+03 0.11129631722E+03 0.89788033350E+02 0.65017372908E+02
 0.42282597065E+02 0.25077184513E+02 0.14615985913E+02 0.99508169790E+01 0.85306978237E+01
 0.79571719452E+01 0.79568191910E+01 0.85303381901E+01 0.99512240412E+01 0.14616332834E+02
 0.25076266052E+02 0.42281700589E+02 0.65020175794E+02 0.89796272985E+02 0.11130617499E+03
 0.10548485951E+03 0.11129265247E+03 0.10547831330E+03 0.89788117204E+02 0.68603509200E+02
 0.47030718988E+02 0.29153744927E+02 0.17116244189E+02 0.10923132100E+02 0.87435298772E+01
 0.79539745262E+01 0.76767901087E+01 0.79531395946E+01 0.87433595148E+01 0.10923855149E+02
 0.17115899950E+02 0.29151228747E+02 0.47028638159E+02 0.68605981261E+02 0.89795330924E+02
 0.80635396759E+02 0.89772840719E+02 0.89773809578E+02 0.80638321706E+02 0.65017344553E+02
 0.47030648175E+02 0.30680410499E+02 0.18651570266E+02 0.11756601194E+02 0.89532080873E+01
 0.79727794677E+01 0.74799217317E+01 0.74796008100E+01 0.79724012373E+01 0.89536143555E+01
 0.11757406078E+02 0.18651178591E+02 0.30677670103E+02 0.47026154420E+02 0.65012902125E+02
 0.55325071772E+02 0.65004352521E+02 0.68588030232E+02 0.65011584428E+02 0.55334120496E+02
 0.42282456039E+02 0.29153780162E+02 0.18651622017E+02 0.12085683501E+02 0.90998350443E+01
 0.79956147619E+01 0.73651740229E+01 0.71528940732E+01 0.73653158533E+01 0.79956919715E+01
 0.91003306588E+01 0.12087474252E+02 0.18654044587E+02 0.29153807226E+02 0.42277292915E+02
 0.34225523063E+02 0.42306964240E+02 0.47058590922E+02 0.47061052447E+02 0.42311326068E+02
 0.34226325445E+02 0.25077189042E+02 0.17116353893E+02 0.11756559030E+02 0.90998017750E+01
 0.80055843752E+01 0.73154283532E+01 0.69710372389E+01 0.69714125219E+01 0.73156477178E+01
 0.80047533269E+01 0.90994947715E+01 0.11759436187E+02 0.17122085572E+02 0.25081509612E+02
 0.19756513802E+02 0.25156232007E+02 0.29265203346E+02 0.30798716659E+02 0.29262662063E+02
 0.25151049015E+02 0.19750029526E+02 0.14616061191E+02 0.10923114476E+02 0.89531306487E+01
 0.79956657678E+01 0.73154492436E+01 0.69138657520E+01 0.67855766961E+01 0.69145158008E+01
 0.73148994005E+01 0.79931134929E+01 0.89506607900E+01 0.10923855149E+02 0.14620828077E+02
 0.12019919843E+02 0.14726363142E+02 0.17302490824E+02 0.18871164542E+02 0.18868317460E+02
 0.17296339448E+02 0.14721885455E+02 0.12020328662E+02 0.99508613813E+01 0.87434611090E+01
 0.79728110289E+01 0.73652271685E+01 0.69709737541E+01 0.67855592700E+01 0.67860611225E+01
 0.69718515528E+01 0.73649189969E+01 0.79699320982E+01 0.87384066366E+01 0.99464195114E+01
 0.91682705987E+01 0.10061122383E+02 0.11137107742E+02 0.12037799049E+02 0.12388364520E+02
 0.12035787480E+02 0.11137088937E+02 0.10065851243E+02 0.91754718089E+01 0.85306852968E+01
 0.79539397877E+01 0.74799786313E+01 0.71528469534E+01 0.69713706105E+01 0.69145947289E+01
 0.69718731262E+01 0.71547435749E+01 0.74824668055E+01 0.79538685715E+01 0.85259305166E+01
 0.82941852379E+01 0.86377293172E+01 0.89537806321E+01 0.92467041677E+01 0.94397745237E+01
 0.94406188780E+01 0.92496726420E+01 0.89587280079E+01 0.86420850121E+01 0.82944374678E+01
 0.79571098064E+01 0.76768131044E+01 0.74796293113E+01 0.73652747050E+01 0.73157109936E+01
 0.73149417859E+01 0.73648247029E+01 0.74824384072E+01 0.76824891633E+01 0.79615761844E+01
 0.80005850820E+01 0.80707753711E+01 0.81647103060E+01 0.82650165291E+01 0.83446217011E+01
 0.83762182947E+01 0.83471397065E+01 0.82674702288E+01 0.81640644522E+01 0.80661115123E+01
 0.79940280440E+01 0.79567889926E+01 0.79532108108E+01 0.79723856663E+01 0.79956657678E+01
 0.80047769941E+01 0.79930362833E+01 0.79698849659E+01 0.79539745262E+01 0.79616081249E+01
 0.82940745599E+01 0.80707473378E+01 0.78917619351E+01 0.77766731907E+01 0.77219076826E+01
 0.77056820294E+01 0.77063895925E+01 0.77222353165E+01 0.77738079212E+01 0.78861668239E+01
 0.80664526339E+01 0.82944741723E+01 0.85303726814E+01 0.87433768681E+01 0.89535308341E+01
 0.91003250469E+01 0.90995224289E+01 0.89506547072E+01 0.87384927580E+01 0.85259775348E+01
 0.91681826042E+01 0.86376934031E+01 0.81648163438E+01 0.77766889924E+01 0.75136896764E+01
 0.73727910398E+01 0.73302226833E+01 0.73724028697E+01 0.75118612045E+01 0.77741205366E+01
 0.81647557488E+01 0.86424343320E+01 0.91755094891E+01 0.99512582376E+01 0.10923805773E+02
 0.11757394918E+02 0.12087570683E+02 0.11759467190E+02 0.10923823397E+02 0.99464093056E+01
 0.12019956440E+02 0.10061145940E+02 0.89538620911E+01 0.82650294365E+01 0.77218160172E+01
 0.73727929363E+01 0.72104937737E+01 0.72100454150E+01 0.73720182810E+01 0.77221633432E+01
 0.82678263113E+01 0.89587632767E+01 0.10065466654E+02 0.12020340929E+02 0.14616358210E+02
 0.17115902595E+02 0.18651237428E+02 0.18654051672E+02 0.17121978513E+02 0.14620778175E+02
 0.19756626238E+02 0.14726417605E+02 0.11137067371E+02 0.92466715969E+01 0.83445551255E+01
 0.77056991421E+01 0.73302928685E+01 0.72100264016E+01 0.73295313866E+01 0.77061597605E+01
 0.83471397065E+01 0.92492405387E+01 0.11136359961E+02 0.14721571382E+02 0.19750029526E+02
 0.25076270371E+02 0.29151201684E+02 0.30677627287E+02 0.29153744927E+02 0.25081509403E+02
 0.34225583174E+02 0.25156219965E+02 0.17302381031E+02 0.12037756895E+02 0.94398167553E+01
 0.83762547408E+01 0.77064352163E+01 0.73723586674E+01 0.73719721822E+01 0.77061882716E+01
 0.83770656586E+01 0.94401493404E+01 0.12034968623E+02 0.17296761449E+02 0.25151955443E+02
 0.34226342474E+02 0.42281637181E+02 0.47028601037E+02 0.47026188111E+02 0.42277370534E+02
 0.55325029953E+02 0.42306865005E+02 0.29265151137E+02 0.18871194144E+02 0.12388462812E+02
 0.94406356130E+01 0.83470970426E+01 0.77222006060E+01 0.75118390559E+01 0.77222202980E+01
 0.83471636182E+01 0.94401238437E+01 0.12386551580E+02 0.18868714316E+02 0.29265203980E+02
 0.42312161956E+02 0.55334157057E+02 0.65020210548E+02 0.68606051117E+02 0.65012965235E+02
 0.80635322867E+02 0.65004278820E+02 0.47058639525E+02 0.30798820679E+02 0.18868356266E+02
 0.12035737876E+02 0.92495922577E+01 0.82674827252E+01 0.77738511150E+01 0.77741479287E+01
 0.82678259003E+01 0.92491927251E+01 0.12034961171E+02 0.18868723521E+02 0.30801466966E+02
 0.47063054437E+02 0.65008746550E+02 0.80638349824E+02 0.89796304816E+02 0.89795278900E+02
 0.10548483297E+03 0.89772906094E+02 0.68588103441E+02 0.47061118090E+02 0.29262609220E+02
 0.17296245732E+02 0.11137067371E+02 0.89587939441E+01 0.81641250471E+01 0.78861328780E+01
 0.81647103060E+01 0.89587477539E+01 0.11136378765E+02 0.17296777526E+02 0.29265203346E+02
 0.47063071476E+02 0.68585451753E+02 0.89765627141E+02 0.10547831330E+03 0.11130604133E+03
 0.12391337543E+03 0.11129281238E+03 0.89773828210E+02 0.65011511022E+02 0.42311259330E+02
 0.25151006783E+02 0.14721940497E+02 0.10065924853E+02 0.86420877281E+01 0.80660403974E+01
 0.80664095524E+01 0.86424729621E+01 0.10065516708E+02 0.14721571960E+02 0.25151925252E+02
 0.42312194452E+02 0.65008746846E+02 0.89765580399E+02 0.11128290841E+03 0.12390888275E+03
 0.10158928188E+03 0.96266582991E+02 0.81895165498E+02 0.62502367674E+02 0.42810259098E+02
 0.26605896451E+02 0.15842540327E+02 0.10431539407E+02 0.85587919382E+01 0.78087006343E+01
 0.75463034421E+01 0.78088259144E+01 0.85588988568E+01 0.10431517922E+02 0.15842441178E+02
 0.26605853101E+02 0.42810318586E+02 0.62502450729E+02 0.81895188904E+02 0.96266562630E+02
 0.96269626083E+02 0.96266507277E+02 0.86424392165E+02 0.69617963938E+02 0.50284187510E+02
 0.32692276726E+02 0.19683551161E+02 0.12136410683E+02 0.90151177210E+01 0.79807668634E+01
 0.74771102774E+01 0.74768109166E+01 0.79804602125E+01 0.90155166109E+01 0.12136944768E+02
 0.19683191069E+02 0.32691746698E+02 0.50286070744E+02 0.69623618569E+02 0.86431240338E+02
 0.81899746613E+02 0.86442278394E+02 0.81895183478E+02 0.69618038412E+02 0.53058631210E+02
 0.36306653095E+02 0.22674427914E+02 0.13836658652E+02 0.95837922898E+01 0.81326183986E+01
 0.74439808801E+01 0.72061738709E+01 0.74432546593E+01 0.81324170500E+01 0.95844243413E+01
 0.13836661670E+02 0.22672810646E+02 0.36305145307E+02 0.53060218810E+02 0.69622995342E+02
 0.62500512025E+02 0.69661069334E+02 0.69661721429E+02 0.62502510642E+02 0.50284163604E+02
 0.36306590523E+02 0.23803140340E+02 0.14900739334E+02 0.10087866305E+02 0.82468777573E+01
 0.74376328669E+01 0.70165590534E+01 0.70162916736E+01 0.74372623145E+01 0.82470368772E+01
 0.10088310353E+02 0.14900354364E+02 0.23801128917E+02 0.36303397331E+02 0.50281068586E+02
 0.42804089380E+02 0.50363027592E+02 0.53168916910E+02 0.50368003866E+02 0.42810267128E+02
 0.32692152033E+02 0.22674457454E+02 0.14900784659E+02 0.10290759278E+02 0.83189750588E+01
 0.74432249552E+01 0.69048042285E+01 0.67274936617E+01 0.69049845985E+01 0.74432918155E+01
 0.83191563491E+01 0.10291742569E+02 0.14902293068E+02 0.22674482143E+02 0.32688683245E+02
 0.26605382476E+02 0.32821568152E+02 0.36505801109E+02 0.36507530617E+02 0.32824594321E+02
 0.26605828460E+02 0.19683553822E+02 0.13836755024E+02 0.10087830962E+02 0.83189464283E+01
 0.74469901231E+01 0.68554080897E+01 0.65683185378E+01 0.65686905413E+01 0.68557747532E+01
 0.74465199099E+01 0.83186857238E+01 0.10089778432E+02 0.13840818975E+02 0.19686725147E+02
 0.15846998887E+02 0.19860409866E+02 0.22966100798E+02 0.24134035283E+02 0.22964451732E+02
 0.19856919963E+02 0.15842491043E+02 0.12136477544E+02 0.95837783843E+01 0.82468104687E+01
 0.74432680407E+01 0.68554255889E+01 0.65184368831E+01 0.64122248757E+01 0.65190019905E+01
 0.68551931148E+01 0.74416203179E+01 0.82452091859E+01 0.95844243413E+01 0.12139897208E+02
 0.10431127310E+02 0.12331772372E+02 0.14187790284E+02 0.15335213387E+02 0.15333283770E+02
 0.14183648879E+02 0.12328828411E+02 0.10431529747E+02 0.90151567418E+01 0.81325572426E+01
 0.74376588907E+01 0.69048497352E+01 0.65682641647E+01 0.64122103299E+01 0.64125044742E+01
 0.65687705550E+01 0.69045939869E+01 0.74357142217E+01 0.81291209819E+01 0.90120625465E+01
 0.85537076315E+01 0.92013698420E+01 0.99440118451E+01 0.10567956900E+02 0.10812420204E+02
 0.10566503569E+02 0.99439951555E+01 0.92047598705E+01 0.85588411817E+01 0.79807538463E+01
 0.74439501628E+01 0.70166097160E+01 0.67274538035E+01 0.65686547763E+01 0.65190703993E+01
 0.65687891631E+01 0.67285316431E+01 0.70182303780E+01 0.74438881755E+01 0.79773967597E+01
 0.78085334007E+01 0.81571589179E+01 0.84763820972E+01 0.87242793533E+01 0.88708699771E+01
 0.88713543500E+01 0.87261325871E+01 0.84796808665E+01 0.81601776381E+01 0.78087435810E+01
 0.74770566831E+01 0.72061964731E+01 0.70163172023E+01 0.69049478330E+01 0.68558291157E+01
 0.68552299782E+01 0.69045117147E+01 0.70182052440E+01 0.72101530643E+01 0.74801668832E+01
 0.75508611511E+01 0.76540954917E+01 0.77788599429E+01 0.79034374970E+01 0.79978035930E+01
 0.80338935269E+01 0.79994325779E+01 0.79049801110E+01 0.77782964640E+01 0.76508143293E+01
 0.75462898833E+01 0.74767860119E+01 0.74433166466E+01 0.74372464366E+01 0.74432680407E+01
 0.74465413403E+01 0.74415534576E+01 0.74356723200E+01 0.74439808801E+01 0.74801955727E+01
 0.78084365106E+01 0.76540699915E+01 0.75406521519E+01 0.74788053074E+01 0.74595456237E+01
 0.74602417708E+01 0.74607881479E+01 0.74598745328E+01 0.74768612428E+01 0.75367543304E+01
 0.76511002955E+01 0.78087719710E+01 0.79804897225E+01 0.81324307548E+01 0.82469635794E+01
 0.83191529298E+01 0.83187109351E+01 0.82452031767E+01 0.81291958426E+01 0.79774392868E+01
 0.85536309964E+01 0.81571257277E+01 0.77789526115E+01 0.74788200185E+01 0.72826700393E+01
 0.71815414971E+01 0.71519564850E+01 0.71814989312E+01 0.72816427366E+01 0.74771253666E+01
 0.77788996967E+01 0.81604701518E+01 0.85588714653E+01 0.90155473533E+01 0.95843816170E+01
 0.10088301587E+02 0.10291827543E+02 0.10089805009E+02 0.95843955225E+01 0.90120542682E+01
 0.10431160214E+02 0.92013897810E+01 0.84764530173E+01 0.79034504420E+01 0.74594658426E+01
 0.71815426796E+01 0.70547089317E+01 0.70544567814E+01 0.71811197380E+01 0.74597594632E+01
 0.79053374618E+01 0.84797675461E+01 0.92043806772E+01 0.10431541165E+02 0.12136967751E+02
 0.13836663592E+02 0.14900405466E+02 0.14902298845E+02 0.13840724525E+02 0.12139853329E+02
 0.15847098036E+02 0.12331820599E+02 0.99439759271E+01 0.87242515962E+01 0.79977458150E+01
 0.74602557327E+01 0.71520172471E+01 0.70544400747E+01 0.71513532523E+01 0.74604136879E+01
 0.79994325779E+01 0.87259504096E+01 0.99433616393E+01 0.12328327463E+02 0.15842491043E+02
 0.19683193533E+02 0.22672785957E+02 0.23801091299E+02 0.22674427914E+02 0.19686724950E+02
 0.26605434988E+02 0.19860399597E+02 0.14187693674E+02 0.10567919636E+02 0.88709071866E+01
 0.80339246159E+01 0.74608275313E+01 0.71814604105E+01 0.71810800347E+01 0.74604391095E+01
 0.80343768318E+01 0.88711854013E+01 0.10566042107E+02 0.14183719730E+02 0.19857270412E+02
 0.26605837623E+02 0.32691690570E+02 0.36305113281E+02 0.36303427878E+02 0.32688751811E+02
 0.42804051927E+02 0.32821480497E+02 0.22966055009E+02 0.15335239057E+02 0.10812506365E+02
 0.88713686490E+01 0.79993952776E+01 0.74598450359E+01 0.72816238093E+01 0.74598097474E+01
 0.79994530556E+01 0.88711624908E+01 0.10811404258E+02 0.15333674382E+02 0.22966101194E+02
 0.32825064946E+02 0.42810289163E+02 0.50286102308E+02 0.53060280673E+02 0.50281124057E+02
 0.62500446553E+02 0.50362962519E+02 0.36505844085E+02 0.24134126919E+02 0.15333317936E+02
 0.10566459977E+02 0.87260623805E+01 0.79049923693E+01 0.74768988979E+01 0.74771483106E+01
 0.79053367750E+01 0.87259079602E+01 0.10566035780E+02 0.15333682878E+02 0.24136067416E+02
 0.36508981113E+02 0.50366082746E+02 0.62502528226E+02 0.69623646212E+02 0.69622948511E+02
 0.81899723207E+02 0.69661127823E+02 0.53168981733E+02 0.36507588479E+02 0.22964405546E+02
 0.14183566698E+02 0.99439759271E+01 0.84797393381E+01 0.77783493788E+01 0.75367225141E+01
 0.77788599429E+01 0.84797550975E+01 0.99433783289E+01 0.14183734158E+02 0.22966100798E+02
 0.36508995998E+02 0.53167245412E+02 0.69656117210E+02 0.81895183478E+02 0.86431121132E+02
 0.96269637893E+02 0.86442420884E+02 0.69661738435E+02 0.50367938541E+02 0.32824535399E+02
 0.19856883232E+02 0.12328876034E+02 0.92048238764E+01 0.81601806298E+01 0.76507509657E+01
 0.76510624321E+01 0.81605063337E+01 0.92044247441E+01 0.12328326859E+02 0.19857243951E+02
 0.32825093679E+02 0.50366082494E+02 0.69656075727E+02 0.86435536813E+02 0.96266498726E+02
 0.71326670777E+02 0.67560892767E+02 0.57397089698E+02 0.43730331242E+02 0.30020821568E+02
 0.19063666601E+02 0.12192651993E+02 0.90478315224E+01 0.79143564657E+01 0.72833741094E+01
 0.70699100037E+01 0.72834745028E+01 0.79144418056E+01 0.90478128706E+01 0.12192569338E+02
 0.19063627312E+02 0.30020865148E+02 0.43730396060E+02 0.57397109210E+02 0.67560877828E+02
 0.67562621428E+02 0.67560828675E+02 0.60585113703E+02 0.48698155812E+02 0.35134378524E+02
 0.23049867645E+02 0.14497395987E+02 0.99129354263E+01 0.81672195345E+01 0.73749284826E+01