    2    2    1    1
  0.9541827E+01  0.2330000E-09  0.2330000E-09  0.4059000E-09  0.5000000E-15
  1.000000000000000E-004
  CAR 
 unknown system                          
     16     96     40
 
  0.0000000E+00  0.0000000E+00  0.0000000E+00  0.7513148E-03
    1       -1.614308   1.000000
    2        2.299122   1.000000
    3        5.325682   1.000000
    4        5.928191   1.000000
    5        5.928271   1.000000
    6        6.283964   1.000000
    7        6.284060   1.000000
    8        7.028584   1.000047
    9        7.257886   1.008715
   10        7.257908   1.008718
   11        8.477332  -0.000000
   12        8.477354  -0.000000
   13       15.738097   0.000000
   14       31.498175   0.000000
   15       32.184629   0.000000
   16       34.718397   0.000000
   17       37.329665   0.000000
   18       37.329730   0.000000
   19       38.105494   0.000000
   20       38.105668   0.000000
   21       39.488396   0.000000
   22       40.855643   0.000000
   23       40.855665   0.000000
   24       41.931114   0.000000
   25       44.828504   0.000000
   26       44.828513   0.000000
   27       45.965526   0.000000
   28       48.907817   0.000000
   29       48.908218   0.000000
   30       50.853200   0.000000
   31       50.853349   0.000000
   32       53.651500   0.000000
   33       61.547445   0.000000
   34       63.254650   0.000000
   35       63.279466   0.000000
   36       63.280401   0.000000
   37       64.532829   0.000000
   38       66.051237   0.000000
   39       66.052373   0.000000
   40       67.939771   0.000000
 
  0.9090909E-01  0.6881282E-17  0.0000000E+00  0.4507889E-02
    1       -1.268944   1.000000
    2        2.555710   1.000000
    3        5.307690   1.000000
    4        5.888849   1.000000
    5        6.072482   1.000000
    6        6.136759   1.000000
    7        6.164971   1.000000
    8        6.478336   1.000000
    9        7.108089   1.000406
   10        7.134267   1.000763
   11        8.516993  -0.000000
   12        9.702166  -0.000000
   13       15.757978   0.000000
   14       30.349383   0.000000
   15       32.517868   0.000000
   16       33.106823   0.000000
   17       34.463643   0.000000
   18       36.728685   0.000000
   19       36.751952   0.000000
   20       39.324846   0.000000
   21       40.323289   0.000000
   22       41.120142   0.000000
   23       41.584561   0.000000
   24       41.835534   0.000000
   25       45.982806   0.000000
   26       46.294891   0.000000
   27       46.309110   0.000000
   28       46.622183   0.000000
   29       50.133293   0.000000
   30       52.303685   0.000000
   31       53.341116   0.000000
   32       55.445145   0.000000
   33       60.462109   0.000000
   34       62.294054   0.000000
   35       62.636450   0.000000
   36       62.978819   0.000000
   37       63.187429   0.000000
   38       66.766547   0.000000
   39       67.908922   0.000000
   40       68.201132   0.000000
 
  0.1818182E+00  0.4048112E-17  0.0000000E+00  0.4507889E-02
    1       -0.295578   1.000000
    2        3.154618   1.000000
    3        4.896114   1.000000
    4        5.059369   1.000000
    5        5.712427   1.000000
    6        6.332651   1.000000
    7        6.716658   1.000000
    8        6.738727   1.000000
    9        6.842345   1.000000
   10        7.009362   1.000027
   11        8.583457  -0.000000
   12       11.646232  -0.000000
   13       15.845235   0.000000
   14       26.672008   0.000000
   15       31.516726   0.000000
   16       31.835653   0.000000
   17       32.267618   0.000000
   18       33.430637   0.000000
   19       37.500315   0.000000
   20       38.656762   0.000000
   21       39.254383   0.000000
   22       39.499637   0.000000
   23       42.332582   0.000000
   24       43.502323   0.000000
   25       46.071371   0.000000
   26       47.049196   0.000000
   27       48.624757   0.000000
   28       50.953280   0.000000
   29       53.195311   0.000000
   30       55.465540   0.000000
   31       56.082085   0.000000
   32       58.731517   0.000000
   33       58.863846   0.000000
   34       59.922358   0.000000
   35       60.612228   0.000000
   36       61.973809   0.000000
   37       64.037548   0.000000
   38       67.697231   0.000000
   39       67.769040   0.000000
   40       69.110641   0.000000
 
  0.2727273E+00 -0.1682618E-16  0.0000000E+00  0.4507889E-02
    1        1.072013   1.000000
    2        3.428543   1.000000
    3        3.980470   1.000000
    4        4.994426   1.000000
    5        5.536783   1.000000
    6        6.278055   1.000000
    7        6.509470   1.000000
    8        7.142580   1.000925
    9        7.540915   0.900201
   10        7.755691   0.121225
   11        8.624379  -0.000000
   12       13.821985   0.000000
   13       16.040359   0.000000
   14       22.642364   0.000000
   15       28.615083   0.000000
   16       29.002188   0.000000
   17       30.299896   0.000000
   18       33.203484   0.000000
   19       35.749991   0.000000
   20       38.852579   0.000000
   21       39.192691   0.000000
   22       39.537239   0.000000
   23       39.943979   0.000000
   24       43.803912   0.000000
   25       49.611492   0.000000
   26       51.239611   0.000000
   27       52.174106   0.000000
   28       53.720620   0.000000
   29       54.973481   0.000000
   30       55.890441   0.000000
   31       57.514234   0.000000
   32       59.053741   0.000000
   33       60.117695   0.000000
   34       60.649308   0.000000
   35       61.426575   0.000000
   36       63.370738   0.000000
   37       64.491076   0.000000
   38       67.628964   0.000000
   39       68.301132   0.000000
   40       68.924997   0.000000
 
  0.3636364E+00  0.3168846E-16  0.0000000E+00  0.4507889E-02
    1        2.263674   1.000000
    2        3.143692   1.000000
    3        3.366794   1.000000
    4        5.212113   1.000000
    5        5.869125   1.000000
    6        5.933580   1.000000
    7        6.235733   1.000000
    8        8.372358  -0.000002
    9        8.456574  -0.000000
   10        8.509794  -0.000000
   11        8.637796  -0.000000
   12       15.829726   0.000000
   13       16.131388   0.000000
   14       19.778612   0.000000
   15       25.309600   0.000000
   16       27.070956   0.000000
   17       27.536177   0.000000
   18       32.276823   0.000000
   19       34.602614   0.000000
   20       37.846670   0.000000
   21       38.467642   0.000000
   22       40.469749   0.000000
   23       41.280457   0.000000
   24       44.109718   0.000000
   25       51.779521   0.000000
   26       52.807246   0.000000
   27       53.200295   0.000000
   28       56.406642   0.000000
   29       56.682912   0.000000
   30       57.220001   0.000000
   31       59.505517   0.000000
   32       60.219747   0.000000
   33       60.903137   0.000000
   34       61.325427   0.000000
   35       63.062188   0.000000
   36       64.696047   0.000000
   37       67.243617   0.000000
   38       67.786119   0.000000
   39       68.225573   0.000000
   40       68.545804   0.000000
 
  0.4545455E+00 -0.2665586E-16  0.0000000E+00  0.4507889E-02
    1        2.683776   1.000000
    2        2.925155   1.000000
    3        3.060616   1.000000
    4        5.632421   1.000000
    5        5.783251   1.000000
    6        6.083388   1.000000
    7        6.191770   1.000000
    8        8.637271  -0.000000
    9        8.889128  -0.000000
   10        9.020598  -0.000000
   11       10.225253  -0.000000
   12       13.829006   0.000000
   13       18.305137   0.000000
   14       19.815560   0.000000
   15       22.653395   0.000000
   16       24.857303   0.000000
   17       25.988695   0.000000
   18       31.627020   0.000000
   19       34.241357   0.000000
   20       36.675322   0.000000
   21       38.291643   0.000000
   22       41.348993   0.000000
   23       43.517238   0.000000
   24       44.129385   0.000000
   25       48.408367   0.000000
   26       53.535043   0.000000
   27       54.714096   0.000000
   28       58.577473   0.000000
   29       58.890356   0.000000
   30       59.567541   0.000000
   31       60.897090   0.000000
   32       61.669871   0.000000
   33       61.771610   0.000000
   34       63.804406   0.000000
   35       64.166350   0.000000
   36       65.723413   0.000000
   37       66.902465   0.000000
   38       67.117164   0.000000
   39       68.533077   0.000000
   40       68.969129   0.000000
 
  0.9090909E-01  0.9090909E-01  0.0000000E+00  0.4507889E-02
    1       -0.606609   1.000000
    2        3.003523   1.000000
    3        5.104221   1.000000
    4        5.206295   1.000000
    5        5.934438   1.000000
    6        6.000777   1.000000
    7        6.560512   1.000000
    8        6.679364   1.000000
    9        6.891205   1.000001
   10        7.105829   1.000384
   11        8.534528  -0.000000
   12       11.105723  -0.000000
   13       15.814669   0.000000
   14       28.367424   0.000000
   15       29.812577   0.000000
   16       32.945319   0.000000
   17       33.892107   0.000000
   18       35.411001   0.000000
   19       35.725929   0.000000
   20       37.634325   0.000000
   21       38.872888   0.000000
   22       43.099504   0.000000
   23       43.176715   0.000000
   24       44.144675   0.000000
   25       44.918194   0.000000
   26       45.188557   0.000000
   27       45.381976   0.000000
   28       51.414279   0.000000
   29       53.703853   0.000000
   30       54.141572   0.000000
   31       54.243668   0.000000
   32       57.984814   0.000000
   33       59.241713   0.000000
   34       60.671521   0.000000
   35       61.366048   0.000000
   36       62.019364   0.000000
   37       63.252673   0.000000
   38       67.752188   0.000000
   39       67.863420   0.000000
   40       69.650670   0.000000
 
  0.1818182E+00  0.9090909E-01  0.0000000E+00  0.9015778E-02
    1        0.591993   1.000000
    2        3.566986   1.000000
    3        4.314171   1.000000
    4        4.758703   1.000000
    5        5.633735   1.000000
    6        6.221917   1.000000
    7        6.473998   1.000000
    8        6.836207   1.000000
    9        7.319659   1.020136
   10        7.664268   0.450236
   11        8.543506  -0.000000
   12       13.060636  -0.000000
   13       16.006422   0.000000
   14       24.695520   0.000000
   15       27.362729   0.000000
   16       30.413337   0.000000
   17       32.677696   0.000000
   18       33.170655   0.000000
   19       36.413467   0.000000
   20       36.997548   0.000000
   21       37.872818   0.000000
   22       42.576892   0.000000
   23       42.600982   0.000000
   24       43.756947   0.000000
   25       46.838561   0.000000
   26       47.714245   0.000000
   27       49.680758   0.000000
   28       54.080677   0.000000
   29       56.063958   0.000000
   30       56.627154   0.000000
   31       56.935023   0.000000
   32       59.043765   0.000000
   33       59.586480   0.000000
   34       60.278743   0.000000
   35       61.023886   0.000000
   36       61.458760   0.000000
   37       63.895878   0.000000
   38       67.634423   0.000000
   39       68.373720   0.000000
   40       69.642920   0.000000
 
  0.2727273E+00  0.9090909E-01  0.0000000E+00  0.9015778E-02
    1        1.968356   1.000000
    2        3.490960   1.000000
    3        3.638174   1.000000
    4        4.843956   1.000000
    5        5.708376   1.000000
    6        5.857262   1.000000
    7        6.441247   1.000000
    8        7.291863   1.014312
    9        8.156079  -0.001068
   10        8.541549  -0.000000
   11        8.673513  -0.000000
   12       15.274852   0.000000
   13       16.293843   0.000000
   14       20.985158   0.000000
   15       25.596722   0.000000
   16       27.047320   0.000000
   17       29.894646   0.000000
   18       31.488696   0.000000
   19       35.729960   0.000000
   20       36.894004   0.000000
   21       38.402698   0.000000
   22       42.118398   0.000000
   23       42.226209   0.000000
   24       44.998457   0.000000
   25       48.892819   0.000000
   26       51.579292   0.000000
   27       53.170371   0.000000
   28       53.868138   0.000000
   29       55.052075   0.000000
   30       57.689632   0.000000
   31       58.784385   0.000000
   32       60.338772   0.000000
   33       61.151430   0.000000
   34       61.190573   0.000000
   35       62.556697   0.000000
   36       64.181019   0.000000
   37       66.542611   0.000000
   38       67.288632   0.000000
   39       67.788982   0.000000
   40       69.622347   0.000000
 
  0.3636364E+00  0.9090909E-01  0.0000000E+00  0.9015778E-02
    1        2.792883   1.000000
    2        3.172472   1.000000
    3        3.228287   1.000000
    4        5.295596   1.000000
    5        5.647335   1.000000
    6        6.088719   1.000000
    7        6.091597   1.000000
    8        8.262401  -0.000071
    9        8.530771  -0.000000
   10        8.740783  -0.000000
   11        9.957456  -0.000000
   12       15.300502   0.000000
   13       17.590602   0.000000
   14       19.599299   0.000000
   15       24.024314   0.000000
   16       24.214174   0.000000
   17       26.651728   0.000000
   18       30.555524   0.000000
   19       34.753636   0.000000
   20       36.358008   0.000000
   21       39.453186   0.000000
   22       42.497541   0.000000
   23       43.401285   0.000000
   24       44.696369   0.000000
   25       50.369062   0.000000
   26       51.689060   0.000000
   27       53.714742   0.000000
   28       55.391423   0.000000
   29       57.055594   0.000000
   30       58.970033   0.000000
   31       59.658437   0.000000
   32       61.144170   0.000000
   33       61.856445   0.000000
   34       64.059754   0.000000
   35       64.897816   0.000000
   36       65.783955   0.000000
   37       65.819794   0.000000
   38       67.930718   0.000000
   39       68.789949   0.000000
   40       69.392735   0.000000
 
  0.4545455E+00  0.9090909E-01  0.0000000E+00  0.4507889E-02
    1        2.892120   1.000000
    2        3.092054   1.000000
    3        3.104165   1.000000
    4        5.592846   1.000000
    5        5.690787   1.000000
    6        5.937547   1.000000
    7        6.217862   1.000000
    8        8.524152  -0.000000
    9        8.812983  -0.000000
   10        8.835566  -0.000000
   11       11.235273  -0.000000
   12       13.522680   0.000000
   13       19.159468   0.000000
   14       20.261121   0.000000
   15       22.226035   0.000000
   16       23.404537   0.000000
   17       25.148889   0.000000
   18       30.225169   0.000000
   19       34.345944   0.000000
   20       36.205531   0.000000
   21       39.628120   0.000000
   22       43.465010   0.000000
   23       43.528844   0.000000
   24       45.156344   0.000000
   25       48.107754   0.000000
   26       53.384482   0.000000
   27       53.715793   0.000000
   28       56.372759   0.000000
   29       58.630142   0.000000
   30       58.797774   0.000000
   31       61.983971   0.000000
   32       62.012908   0.000000
   33       62.016752   0.000000
   34       62.325749   0.000000
   35       64.963552   0.000000
   36       67.526815   0.000000
   37       67.591352   0.000000
   38       67.690342   0.000000
   39       67.978750   0.000000
   40       70.668451   0.000000
 
  0.1818182E+00  0.1818182E+00  0.0000000E+00  0.4507889E-02
    1        1.882137   1.000000
    2        3.797545   1.000000
    3        4.024046   1.000000
    4        4.276703   1.000000
    5        5.702176   1.000000
    6        5.749218   1.000000
    7        6.602628   1.000000
    8        6.739628   1.000000
    9        8.131716  -0.001818
   10        8.438159  -0.000000
   11        8.742192  -0.000000
   12       15.002915   0.000000
   13       16.466868   0.000000
   14       22.654712   0.000000
   15       23.518399   0.000000
   16       28.505413   0.000000
   17       30.106778   0.000000
   18       32.262186   0.000000
   19       33.024775   0.000000
   20       38.015996   0.000000
   21       39.489946   0.000000
   22       43.612796   0.000000
   23       43.672191   0.000000
   24       46.038125   0.000000
   25       46.780575   0.000000
   26       48.865661   0.000000
   27       50.261542   0.000000
   28       55.331574   0.000000
   29       55.924597   0.000000
   30       57.443368   0.000000
   31       57.484559   0.000000
   32       60.633482   0.000000
   33       60.667816   0.000000
   34       63.088222   0.000000
   35       63.496651   0.000000
   36       63.583549   0.000000
   37       63.931759   0.000000
   38       67.342851   0.000000
   39       67.714738   0.000000
   40       70.665597   0.000000
 
  0.2727273E+00  0.1818182E+00  0.0000000E+00  0.9015778E-02
    1        3.091856   1.000000
    2        3.453097   1.000000
    3        3.728741   1.000000
    4        4.501719   1.000000
    5        5.486125   1.000000
    6        6.000033   1.000000
    7        6.181443   1.000000
    8        7.342534   1.025390
    9        8.347250  -0.000005
   10        8.679642  -0.000000
   11       10.100487  -0.000000
   12       16.894777   0.000000
   13       17.248750   0.000000
   14       19.805430   0.000000
   15       21.844063   0.000000
   16       25.912060   0.000000
   17       28.433107   0.000000
   18       28.777729   0.000000
   19       31.681891   0.000000
   20       39.987901   0.000000
   21       40.142373   0.000000
   22       43.573915   0.000000
   23       45.673006   0.000000
   24       46.840751   0.000000
   25       48.177947   0.000000
   26       50.024719   0.000000
   27       51.495915   0.000000
   28       53.135456   0.000000
   29       56.301172   0.000000
   30       57.146487   0.000000
   31       59.119073   0.000000
   32       61.074491   0.000000
   33       62.218244   0.000000
   34       63.536715   0.000000
   35       65.450415   0.000000
   36       65.743881   0.000000
   37       67.074507   0.000000
   38       67.969568   0.000000
   39       69.116662   0.000000
   40       70.532763   0.000000
 
  0.3636364E+00  0.1818182E+00  0.0000000E+00  0.9015778E-02
    1        3.288844   1.000000
    2        3.416920   1.000000
    3        3.566994   1.000000
    4        5.037451   1.000000
    5        5.487008   1.000000
    6        5.763081   1.000000
    7        6.285279   1.000000
    8        8.089894  -0.004173
    9        8.295761  -0.000026
   10        8.706611  -0.000000
   11       11.772843  -0.000000
   12       14.967665   0.000000
   13       19.538173   0.000000
   14       20.115633   0.000000
   15       21.043091   0.000000
   16       23.244333   0.000000
   17       25.816819   0.000000
   18       27.780224   0.000000
   19       31.017036   0.000000
   20       39.916515   0.000000
   21       41.971199   0.000000
   22       43.972719   0.000000
   23       45.568768   0.000000
   24       46.456185   0.000000
   25       50.386340   0.000000
   26       50.565654   0.000000
   27       52.511371   0.000000
   28       52.941106   0.000000
   29       56.822323   0.000000
   30       57.846645   0.000000
   31       58.421456   0.000000
   32       61.412268   0.000000
   33       62.032530   0.000000
   34       62.293947   0.000000
   35       66.639098   0.000000
   36       67.033400   0.000000
   37       68.774127   0.000000
   38       68.864693   0.000000
   39       69.375430   0.000000
   40       69.864662   0.000000
 
  0.2727273E+00  0.2727273E+00  0.0000000E+00  0.4507889E-02
    1        3.425413   1.000000
    2        3.841418   1.000000
    3        4.193734   1.000000
    4        4.195051   1.000000
    5        5.321543   1.000000
    6        5.772109   1.000000
    7        6.332491   1.000000
    8        7.627171   0.606166
    9        8.176814  -0.000661
   10        8.673549  -0.000000
   11       11.913547  -0.000000
   12       17.134999   0.000000
   13       17.679501   0.000000
   14       19.573984   0.000000
   15       20.934812   0.000000
   16       25.187987   0.000000
   17       25.421361   0.000000
   18       27.538653   0.000000
   19       28.440458   0.000000
   20       41.760216   0.000000
   21       42.737775   0.000000
   22       46.123652   0.000000
   23       47.121078   0.000000
   24       47.995031   0.000000
   25       48.171058   0.000000
   26       48.539294   0.000000
   27       51.244989   0.000000
   28       53.797902   0.000000
   29       54.115077   0.000000
   30       57.416200   0.000000
   31       58.174045   0.000000
   32       60.758690   0.000000
   33       61.922639   0.000000
   34       62.450922   0.000000
   35       66.421714   0.000000
   36       67.461576   0.000000
   37       67.490419   0.000000
   38       69.077236   0.000000
   39       69.908692   0.000000
   40       70.804560   0.000000
 
  0.3636364E+00  0.2727273E+00  0.0000000E+00  0.4507889E-02
    1        3.443147   1.000000
    2        3.976548   1.000000
    3        4.043444   1.000000
    4        4.571072   1.000000
    5        5.393437   1.000000
    6        5.459376   1.000000
    7        6.489686   1.000000
    8        8.023416  -0.012421
    9        8.111570  -0.002749
   10        8.347495  -0.000005
   11       13.712961   0.000000
   12       15.109557   0.000000
   13       17.295219   0.000000
   14       21.594872   0.000000
   15       21.902290   0.000000
   16       23.058858   0.000000
   17       25.050624   0.000000
   18       25.870231   0.000000
   19       27.818205   0.000000
   20       42.168133   0.000000
   21       45.001938   0.000000
   22       46.353172   0.000000
   23       46.367577   0.000000
   24       47.411692   0.000000
   25       49.025015   0.000000
   26       49.647621   0.000000
   27       52.857848   0.000000
   28       52.874868   0.000000
   29       53.290298   0.000000
   30       56.730340   0.000000
   31       58.112555   0.000000
   32       58.700645   0.000000
   33       61.712294   0.000000
   34       62.018556   0.000000
   35       66.626205   0.000000
   36       67.612284   0.000000
   37       69.421058   0.000000
   38       69.648959   0.000000
   39       69.741966   0.000000
   40       69.793494   0.000000
 
  0.0000000E+00  0.0000000E+00  0.9090909E-01  0.1502630E-02
    1       -1.528865   1.000000
    2        2.274084   1.000000
    3        5.300837   1.000000
    4        5.917047   1.000000
    5        5.917126   1.000000
    6        6.263752   1.000000
    7        6.263847   1.000000
    8        6.794403   1.000000
    9        7.302441   1.016416
   10        7.302464   1.016421
   11        8.467871  -0.000000
   12        8.467894  -0.000000
   13       16.130009   0.000000
   14       31.078885   0.000000
   15       32.061511   0.000000
   16       34.535437   0.000000
   17       37.377404   0.000000
   18       37.377461   0.000000
   19       38.114324   0.000000
   20       38.114491   0.000000
   21       39.916627   0.000000
   22       40.784602   0.000000
   23       40.784618   0.000000
   24       42.206665   0.000000
   25       44.488387   0.000000
   26       44.488402   0.000000
   27       46.232779   0.000000
   28       49.168134   0.000000
   29       49.168515   0.000000
   30       51.268697   0.000000
   31       51.268836   0.000000
   32       53.496279   0.000000
   33       60.658833   0.000000
   34       63.074591   0.000000
   35       63.075485   0.000000
   36       63.412885   0.000000
   37       64.743034   0.000000
   38       64.743665   0.000000
   39       65.528096   0.000000
   40       67.559092   0.000000
 
  0.9090909E-01  0.6881282E-17  0.9090909E-01  0.9015778E-02
    1       -1.185603   1.000000
    2        2.535272   1.000000
    3        5.299145   1.000000
    4        5.848033   1.000000
    5        5.875576   1.000000
    6        6.120289   1.000000
    7        6.230504   1.000000
    8        6.454420   1.000000
    9        7.160415   1.001380
   10        7.187665   1.002450
   11        8.503462  -0.000000
   12        9.536638  -0.000000
   13       16.184424   0.000000
   14       30.312359   0.000000
   15       31.952978   0.000000
   16       33.113155   0.000000
   17       34.515581   0.000000
   18       35.988518   0.000000
   19       37.442045   0.000000
   20       39.513361   0.000000
   21       40.029871   0.000000
   22       41.214386   0.000000
   23       41.627880   0.000000
   24       42.168266   0.000000
   25       45.616325   0.000000
   26       45.942790   0.000000
   27       47.024287   0.000000
   28       47.123677   0.000000
   29       50.024655   0.000000
   30       52.589114   0.000000
   31       53.565594   0.000000
   32       55.368830   0.000000
   33       59.311302   0.000000
   34       61.855397   0.000000
   35       62.698683   0.000000
   36       63.074553   0.000000
   37       64.036418   0.000000
   38       65.709919   0.000000
   39       66.927336   0.000000
   40       67.597238   0.000000
 
  0.1818182E+00  0.4048112E-17  0.9090909E-01  0.9015778E-02
    1       -0.220748   1.000000
    2        3.149232   1.000000
    3        4.804742   1.000000
    4        5.079364   1.000000
    5        5.676950   1.000000
    6        6.239614   1.000000
    7        6.641955   1.000000
    8        6.876059   1.000000
    9        6.903435   1.000001
   10        7.040590   1.000067
   11        8.562641  -0.000000
   12       11.283205  -0.000000
   13       16.396670   0.000000
   14       26.727934   0.000000
   15       31.281190   0.000000
   16       31.611870   0.000000
   17       32.648623   0.000000
   18       32.890975   0.000000
   19       37.234931   0.000000
   20       38.638684   0.000000
   21       39.004121   0.000000
   22       39.913403   0.000000
   23       42.677186   0.000000
   24       44.107928   0.000000
   25       46.343000   0.000000
   26       47.026503   0.000000
   27       48.414462   0.000000
   28       51.013649   0.000000
   29       53.009406   0.000000
   30       55.586440   0.000000
   31       56.394607   0.000000
   32       57.543890   0.000000
   33       58.478794   0.000000
   34       60.157768   0.000000
   35       61.155716   0.000000
   36       62.233463   0.000000
   37       64.008237   0.000000
   38       66.770489   0.000000
   39       67.800666   0.000000
   40       68.930657   0.000000
 
  0.2727273E+00 -0.1682618E-16  0.9090909E-01  0.9015778E-02
    1        1.122011   1.000000
    2        3.433963   1.000000
    3        3.952016   1.000000
    4        5.002813   1.000000
    5        5.484109   1.000000
    6        6.302892   1.000000
    7        6.533118   1.000000
    8        7.183606   1.002256
    9        7.552842   0.869114
   10        7.737281   0.174462
   11        8.601113  -0.000000
   12       13.109638  -0.000000
   13       16.886186   0.000000
   14       22.710702   0.000000
   15       28.168497   0.000000
   16       29.114231   0.000000
   17       30.618224   0.000000
   18       33.009785   0.000000
   19       35.659946   0.000000
   20       37.862546   0.000000
   21       38.108158   0.000000
   22       40.542188   0.000000
   23       40.959353   0.000000
   24       44.602859   0.000000
   25       49.726387   0.000000
   26       51.051748   0.000000
   27       51.819258   0.000000
   28       52.208575   0.000000
   29       55.877504   0.000000
   30       56.281742   0.000000
   31       57.810201   0.000000
   32       59.312793   0.000000
   33       59.844151   0.000000
   34       59.866413   0.000000
   35       62.011572   0.000000
   36       63.048289   0.000000
   37       64.754568   0.000000
   38       67.341293   0.000000
   39       67.524404   0.000000
   40       68.892375   0.000000
 
  0.3636364E+00  0.3168846E-16  0.9090909E-01  0.9015778E-02
    1        2.246010   1.000000
    2        3.109137   1.000000
    3        3.469717   1.000000
    4        4.985522   1.000000
    5        5.938990   1.000000
    6        6.154906   1.000000
    7        6.273693   1.000000
    8        8.375723  -0.000002
    9        8.416142  -0.000000
   10        8.436161  -0.000000
   11        8.655693  -0.000000
   12       14.541243   0.000000
   13       17.412384   0.000000
   14       19.910189   0.000000
   15       24.910315   0.000000
   16       27.200539   0.000000
   17       27.974978   0.000000
   18       32.248963   0.000000
   19       34.583115   0.000000
   20       36.600512   0.000000
   21       39.127088   0.000000
   22       39.745987   0.000000
   23       41.884995   0.000000
   24       45.090380   0.000000
   25       50.250049   0.000000
   26       53.071417   0.000000
   27       54.194143   0.000000
   28       55.429264   0.000000
   29       56.463761   0.000000
   30       58.171512   0.000000
   31       59.327770   0.000000
   32       60.139412   0.000000
   33       61.268102   0.000000
   34       61.377978   0.000000
   35       63.139693   0.000000
   36       64.652948   0.000000
   37       66.759398   0.000000
   38       67.269171   0.000000
   39       68.582646   0.000000
   40       68.811420   0.000000
 
  0.4545455E+00 -0.2665586E-16  0.9090909E-01  0.9015778E-02
    1        2.608185   1.000000
    2        2.787473   1.000000
    3        3.340503   1.000000
    4        5.064842   1.000000
    5        6.125510   1.000000
    6        6.158678   1.000000
    7        6.474219   1.000000
    8        8.567345  -0.000000
    9        8.893780  -0.000000
   10        9.022308  -0.000000
   11       10.129298  -0.000000
   12       13.635012   0.000000
   13       18.153204   0.000000
   14       19.863961   0.000000
   15       22.770373   0.000000
   16       25.254310   0.000000
   17       26.126604   0.000000
   18       31.635295   0.000000
   19       34.228526   0.000000
   20       35.722957   0.000000
   21       39.267532   0.000000