       N       E                     dE             d eps       ncg     rms          rms(c)
DAV:   1     0.600336074009E+02    0.60034E+02   -0.25620E+03  9416   0.328E+02
DAV:   2    -0.147479997286E+02   -0.74782E+02   -0.63846E+02  7896   0.965E+01
DAV:   3    -0.189958713364E+02   -0.42479E+01   -0.40492E+01  9584   0.239E+01
DAV:   4    -0.190131130709E+02   -0.17242E-01   -0.17230E-01  9136   0.160E+00
DAV:   5    -0.190131275213E+02   -0.14450E-04   -0.14450E-04  9136   0.440E-02    0.182E+01
DAV:   6    -0.162302419597E+02    0.27829E+01   -0.15701E+00 11224   0.236E+01    0.172E+00
DAV:   7    -0.160833437485E+02    0.14690E+00   -0.85804E-02  9952   0.439E+00    0.122E+00
DAV:   8    -0.160529358428E+02    0.30408E-01   -0.25197E-03 10056   0.329E-01    0.537E-01
DAV:   9    -0.160432946397E+02    0.96412E-02   -0.90314E-04 10744   0.168E-01    0.582E-02
DAV:  10    -0.160433139903E+02   -0.19351E-04   -0.31812E-05  8576   0.232E-02    0.227E-02
DAV:  11    -0.160433028224E+02    0.11168E-04   -0.22037E-07  8496   0.520E-03    0.172E-03
DAV:  12    -0.160433018170E+02    0.10055E-05   -0.77888E-08  6016   0.152E-03    0.107E-03
DAV:  13    -0.160433021323E+02   -0.31537E-06   -0.88949E-09  5440   0.437E-04
   1 F= -.16043302E+02 E0= -.16043785E+02  d E =0.144850E-02
