<?xml version="1.0" encoding="ISO-8859-1"?>
<modeling>
 <generator>
  <i name="program" type="string">vasp </i>
  <i name="version" type="string">6.2.0  </i>
  <i name="subversion" type="string">18Jan21 (build Mar 17 2021 09:06:54) complex                          serial </i>
  <i name="platform" type="string">LinuxIFC </i>
  <i name="date" type="string">2021 09 09 </i>
  <i name="time" type="string">12:04:11 </i>
 </generator>
 <incar>
  <i type="string" name="PREC">normal</i>
  <i type="int" name="ICHARG">     1</i>
  <i type="int" name="IBRION">     1</i>
  <i name="EDIFF">      0.00000100</i>
  <i type="int" name="NSW">     0</i>
  <i type="int" name="ISIF">     2</i>
  <i name="ENCUT">    280.00000000</i>
  <i type="int" name="NBANDS">    40</i>
  <i type="int" name="ISMEAR">     1</i>
  <i name="SIGMA">      0.20000000</i>
  <i type="logical" name="LCHARG"> T  </i>
  <i type="int" name="KPAR">     1</i>
  <i type="int" name="NCORE">     1</i>
  <i type="string" name="GGA">PE</i>
 </incar>
 <primitive_cell>
  <structure name="primitive_cell" >
   <crystal>
    <varray name="basis" >
     <v>       2.33000000       0.00000000       0.00000000 </v>
     <v>      -1.16500000       2.01783919       0.00000000 </v>
     <v>       0.00000000       0.00000000       4.05900000 </v>
    </varray>
    <i name="volume">     19.08365361 </i>
    <varray name="rec_basis" >
     <v>       0.42918455       0.24778982       0.00000000 </v>
     <v>       0.00000000       0.49557963       0.00000000 </v>
     <v>       0.00000000       0.00000000       0.24636610 </v>
    </varray>
   </crystal>
   <varray name="positions" >
    <v>       0.00000000       0.00000000       0.00000000 </v>
    <v>       0.33333333       0.66666667       0.50000000 </v>
   </varray>
  </structure>
  <varray name="primitive_index" >
   <v type="int" >        1 </v>
   <v type="int" >        2 </v>
  </varray>
 </primitive_cell>
 <kpoints>
  <generation param="Monkhorst-Pack">
   <v type="int" name="divisions">      11       11       11 </v>
   <v name="usershift">      0.00000000       0.00000000       0.00000000 </v>
   <v name="genvec1">      0.09090909       0.00000000       0.00000000 </v>
   <v name="genvec2">      0.00000000       0.09090909       0.00000000 </v>
   <v name="genvec3">      0.00000000       0.00000000       0.09090909 </v>
   <v name="shift">      0.00000000       0.00000000       0.00000000 </v>
  </generation>
  <varray name="kpointlist" >
   <v>       0.00000000       0.00000000       0.00000000 </v>
   <v>       0.09090909       0.00000000       0.00000000 </v>
   <v>       0.18181818       0.00000000       0.00000000 </v>
   <v>       0.27272727      -0.00000000       0.00000000 </v>
   <v>       0.36363636       0.00000000       0.00000000 </v>
   <v>       0.45454545      -0.00000000       0.00000000 </v>
   <v>       0.09090909       0.09090909       0.00000000 </v>
   <v>       0.18181818       0.09090909       0.00000000 </v>
   <v>       0.27272727       0.09090909       0.00000000 </v>
   <v>       0.36363636       0.09090909       0.00000000 </v>
   <v>       0.45454545       0.09090909       0.00000000 </v>
   <v>       0.18181818       0.18181818       0.00000000 </v>
   <v>       0.27272727       0.18181818       0.00000000 </v>
   <v>       0.36363636       0.18181818       0.00000000 </v>
   <v>       0.27272727       0.27272727       0.00000000 </v>
   <v>       0.36363636       0.27272727       0.00000000 </v>
   <v>       0.00000000       0.00000000       0.09090909 </v>
   <v>       0.09090909       0.00000000       0.09090909 </v>
   <v>       0.18181818       0.00000000       0.09090909 </v>
   <v>       0.27272727      -0.00000000       0.09090909 </v>
   <v>       0.36363636       0.00000000       0.09090909 </v>
   <v>       0.45454545      -0.00000000       0.09090909 </v>
   <v>       0.09090909       0.09090909       0.09090909 </v>
   <v>       0.18181818       0.09090909       0.09090909 </v>
   <v>       0.27272727       0.09090909       0.09090909 </v>
   <v>       0.36363636       0.09090909       0.09090909 </v>
   <v>       0.45454545       0.09090909       0.09090909 </v>
   <v>       0.18181818       0.18181818       0.09090909 </v>
   <v>       0.27272727       0.18181818       0.09090909 </v>
   <v>       0.36363636       0.18181818       0.09090909 </v>
   <v>       0.27272727       0.27272727       0.09090909 </v>
   <v>       0.36363636       0.27272727       0.09090909 </v>
   <v>       0.00000000       0.00000000       0.18181818 </v>
   <v>       0.09090909       0.00000000       0.18181818 </v>
   <v>       0.18181818       0.00000000       0.18181818 </v>
   <v>       0.27272727      -0.00000000       0.18181818 </v>
   <v>       0.36363636       0.00000000       0.18181818 </v>
   <v>       0.45454545      -0.00000000       0.18181818 </v>
   <v>       0.09090909       0.09090909       0.18181818 </v>
   <v>       0.18181818       0.09090909       0.18181818 </v>
   <v>       0.27272727       0.09090909       0.18181818 </v>
   <v>       0.36363636       0.09090909       0.18181818 </v>
   <v>       0.45454545       0.09090909       0.18181818 </v>
   <v>       0.18181818       0.18181818       0.18181818 </v>
   <v>       0.27272727       0.18181818       0.18181818 </v>
   <v>       0.36363636       0.18181818       0.18181818 </v>
   <v>       0.27272727       0.27272727       0.18181818 </v>
   <v>       0.36363636       0.27272727       0.18181818 </v>
   <v>       0.00000000       0.00000000       0.27272727 </v>
   <v>       0.09090909       0.00000000       0.27272727 </v>
   <v>       0.18181818       0.00000000       0.27272727 </v>
   <v>       0.27272727      -0.00000000       0.27272727 </v>
   <v>       0.36363636       0.00000000       0.27272727 </v>
   <v>       0.45454545      -0.00000000       0.27272727 </v>
   <v>       0.09090909       0.09090909       0.27272727 </v>
   <v>       0.18181818       0.09090909       0.27272727 </v>
   <v>       0.27272727       0.09090909       0.27272727 </v>
   <v>       0.36363636       0.09090909       0.27272727 </v>
   <v>       0.45454545       0.09090909       0.27272727 </v>
   <v>       0.18181818       0.18181818       0.27272727 </v>
   <v>       0.27272727       0.18181818       0.27272727 </v>
   <v>       0.36363636       0.18181818       0.27272727 </v>
   <v>       0.27272727       0.27272727       0.27272727 </v>
   <v>       0.36363636       0.27272727       0.27272727 </v>
   <v>       0.00000000       0.00000000       0.36363636 </v>
   <v>       0.09090909       0.00000000       0.36363636 </v>
   <v>       0.18181818       0.00000000       0.36363636 </v>
   <v>       0.27272727      -0.00000000       0.36363636 </v>
   <v>       0.36363636       0.00000000       0.36363636 </v>
   <v>       0.45454545      -0.00000000       0.36363636 </v>
   <v>       0.09090909       0.09090909       0.36363636 </v>
   <v>       0.18181818       0.09090909       0.36363636 </v>
   <v>       0.27272727       0.09090909       0.36363636 </v>
   <v>       0.36363636       0.09090909       0.36363636 </v>
   <v>       0.45454545       0.09090909       0.36363636 </v>
   <v>       0.18181818       0.18181818       0.36363636 </v>
   <v>       0.27272727       0.18181818       0.36363636 </v>
   <v>       0.36363636       0.18181818       0.36363636 </v>
   <v>       0.27272727       0.27272727       0.36363636 </v>
   <v>       0.36363636       0.27272727       0.36363636 </v>
   <v>       0.00000000       0.00000000       0.45454545 </v>
   <v>       0.09090909       0.00000000       0.45454545 </v>
   <v>       0.18181818       0.00000000       0.45454545 </v>
   <v>       0.27272727      -0.00000000       0.45454545 </v>
   <v>       0.36363636       0.00000000       0.45454545 </v>
   <v>       0.45454545      -0.00000000       0.45454545 </v>
   <v>       0.09090909       0.09090909       0.45454545 </v>
   <v>       0.18181818       0.09090909       0.45454545 </v>
   <v>       0.27272727       0.09090909       0.45454545 </v>
   <v>       0.36363636       0.09090909       0.45454545 </v>
   <v>       0.45454545       0.09090909       0.45454545 </v>
   <v>       0.18181818       0.18181818       0.45454545 </v>
   <v>       0.27272727       0.18181818       0.45454545 </v>
   <v>       0.36363636       0.18181818       0.45454545 </v>
   <v>       0.27272727       0.27272727       0.45454545 </v>
   <v>       0.36363636       0.27272727       0.45454545 </v>
  </varray>
  <varray name="weights" >
   <v>       0.00075131 </v>
   <v>       0.00450789 </v>
   <v>       0.00450789 </v>
   <v>       0.00450789 </v>
   <v>       0.00450789 </v>
   <v>       0.00450789 </v>
   <v>       0.00450789 </v>
   <v>       0.00901578 </v>
   <v>       0.00901578 </v>
   <v>       0.00901578 </v>
   <v>       0.00450789 </v>
   <v>       0.00450789 </v>
   <v>       0.00901578 </v>
   <v>       0.00901578 </v>
   <v>       0.00450789 </v>
   <v>       0.00450789 </v>
   <v>       0.00150263 </v>
   <v>       0.00901578 </v>
   <v>       0.00901578 </v>
   <v>       0.00901578 </v>
   <v>       0.00901578 </v>
   <v>       0.00901578 </v>
   <v>       0.00901578 </v>
   <v>       0.01803156 </v>
   <v>       0.01803156 </v>
   <v>       0.01803156 </v>
   <v>       0.00901578 </v>
   <v>       0.00901578 </v>
   <v>       0.01803156 </v>
   <v>       0.01803156 </v>
   <v>       0.00901578 </v>
   <v>       0.00901578 </v>
   <v>       0.00150263 </v>
   <v>       0.00901578 </v>
   <v>       0.00901578 </v>
   <v>       0.00901578 </v>
   <v>       0.00901578 </v>
   <v>       0.00901578 </v>
   <v>       0.00901578 </v>
   <v>       0.01803156 </v>
   <v>       0.01803156 </v>
   <v>       0.01803156 </v>
   <v>       0.00901578 </v>
   <v>       0.00901578 </v>
   <v>       0.01803156 </v>
   <v>       0.01803156 </v>
   <v>       0.00901578 </v>
   <v>       0.00901578 </v>
   <v>       0.00150263 </v>
   <v>       0.00901578 </v>
   <v>       0.00901578 </v>
   <v>       0.00901578 </v>
   <v>       0.00901578 </v>
   <v>       0.00901578 </v>
   <v>       0.00901578 </v>
   <v>       0.01803156 </v>
   <v>       0.01803156 </v>
   <v>       0.01803156 </v>
   <v>       0.00901578 </v>
   <v>       0.00901578 </v>
   <v>       0.01803156 </v>
   <v>       0.01803156 </v>
   <v>       0.00901578 </v>
   <v>       0.00901578 </v>
   <v>       0.00150263 </v>
   <v>       0.00901578 </v>
   <v>       0.00901578 </v>
   <v>       0.00901578 </v>
   <v>       0.00901578 </v>
   <v>       0.00901578 </v>
   <v>       0.00901578 </v>
   <v>       0.01803156 </v>
   <v>       0.01803156 </v>
   <v>       0.01803156 </v>
   <v>       0.00901578 </v>
   <v>       0.00901578 </v>
   <v>       0.01803156 </v>
   <v>       0.01803156 </v>
   <v>       0.00901578 </v>
   <v>       0.00901578 </v>
   <v>       0.00150263 </v>
   <v>       0.00901578 </v>
   <v>       0.00901578 </v>
   <v>       0.00901578 </v>
   <v>       0.00901578 </v>
   <v>       0.00901578 </v>
   <v>       0.00901578 </v>
   <v>       0.01803156 </v>
   <v>       0.01803156 </v>
   <v>       0.01803156 </v>
   <v>       0.00901578 </v>
   <v>       0.00901578 </v>
   <v>       0.01803156 </v>
   <v>       0.01803156 </v>
   <v>       0.00901578 </v>
   <v>       0.00901578 </v>
  </varray>
 </kpoints>
 <parameters>
  <separator name="general" >
   <i type="string" name="SYSTEM">unknown system</i>
   <i type="logical" name="LCOMPAT"> F  </i>
  </separator>
  <separator name="electronic" >
   <i type="string" name="PREC">normal</i>
   <i name="ENMAX">    280.00000000</i>
   <i name="ENAUG">    511.36800000</i>
   <i name="EDIFF">      0.00000100</i>
   <i type="int" name="IALGO">    38</i>
   <i type="int" name="IWAVPR">     0</i>
   <i type="int" name="NBANDS">    40</i>
   <i type="int" name="NBANDSLOW">    -1</i>
   <i type="int" name="NBANDSHIGH">    -1</i>
   <i name="NELECT">     16.00000000</i>
   <i type="int" name="TURBO">     0</i>
   <i type="int" name="IRESTART">     0</i>
   <i type="int" name="NREBOOT">     0</i>
   <i type="int" name="NMIN">     0</i>
   <i name="EREF">      0.00000000</i>
   <separator name="electronic smearing" >
    <i type="int" name="ISMEAR">     1</i>
    <i name="SIGMA">      0.20000000</i>
    <i name="KSPACING">      0.50000000</i>
    <i type="logical" name="KGAMMA"> T  </i>
    <i type="logical" name="KBLOWUP"> T  </i>
   </separator>
   <separator name="electronic projectors" >
    <i type="logical" name="LREAL"> F  </i>
    <v name="ROPT">      0.00000000</v>
    <i type="int" name="LMAXPAW">  -100</i>
    <i type="int" name="LMAXMIX">     2</i>
    <i type="logical" name="NLSPLINE"> F  </i>
   </separator>
   <separator name="electronic startup" >
    <i type="int" name="ISTART">     0</i>
    <i type="int" name="ICHARG">     1</i>
    <i type="int" name="INIWAV">     1</i>
   </separator>
   <separator name="electronic spin" >
    <i type="int" name="ISPIN">     1</i>
    <i type="logical" name="LNONCOLLINEAR"> F  </i>
    <v name="MAGMOM">      1.00000000      1.00000000</v>
    <i name="NUPDOWN">     -1.00000000</i>
    <i type="logical" name="LSORBIT"> F  </i>
    <v name="SAXIS">      0.00000000      0.00000000      1.00000000</v>
    <i type="logical" name="LSPIRAL"> F  </i>
    <v name="QSPIRAL">      0.00000000      0.00000000      0.00000000</v>
    <i type="logical" name="LZEROZ"> F  </i>
   </separator>
   <separator name="electronic exchange-correlation" >
    <i type="logical" name="LASPH"> F  </i>
    <i type="logical" name="LMETAGGA"> F  </i>
   </separator>
   <separator name="electronic convergence" >
    <i type="int" name="NELM">    60</i>
    <i type="int" name="NELMDL">    -5</i>
    <i type="int" name="NELMIN">     2</i>
    <i name="ENINI">    280.00000000</i>
    <separator name="electronic convergence detail" >
     <i type="logical" name="LDIAG"> T  </i>
     <i type="logical" name="LSUBROT"> F  </i>
     <i name="WEIMIN">      0.00000000</i>
     <i name="EBREAK">      0.00000001</i>
     <i name="DEPER">      0.30000000</i>
     <i type="int" name="NRMM">     4</i>
     <i name="TIME">      0.40000000</i>
    </separator>
   </separator>
   <separator name="electronic mixer" >
    <i name="AMIX">      0.40000000</i>
    <i name="BMIX">      1.00000000</i>
    <i name="AMIN">      0.10000000</i>
    <i name="AMIX_MAG">      1.60000000</i>
    <i name="BMIX_MAG">      1.00000000</i>
    <separator name="electronic mixer details" >
     <i type="int" name="IMIX">     4</i>
     <i type="logical" name="MIXFIRST"> F  </i>
     <i type="int" name="MAXMIX">   -45</i>
     <i name="WC">    100.00000000</i>
     <i type="int" name="INIMIX">     1</i>
     <i type="int" name="MIXPRE">     1</i>
     <i type="int" name="MREMOVE">     5</i>
    </separator>
   </separator>
   <separator name="electronic dipolcorrection" >
    <i type="logical" name="LDIPOL"> F  </i>
    <i type="logical" name="LMONO"> F  </i>
    <i type="int" name="IDIPOL">     0</i>
    <i name="EPSILON">      1.00000000</i>
    <v name="DIPOL">   -100.00000000   -100.00000000   -100.00000000</v>
    <i name="EFIELD">      0.00000000</i>
   </separator>
  </separator>
  <separator name="grids" >
   <i type="int" name="NGX">    10</i>
   <i type="int" name="NGY">    10</i>
   <i type="int" name="NGZ">    18</i>
   <i type="int" name="NGXF">    20</i>
   <i type="int" name="NGYF">    20</i>
   <i type="int" name="NGZF">    36</i>
   <i type="logical" name="ADDGRID"> F  </i>
  </separator>
  <separator name="ionic" >
   <i type="int" name="NSW">     0</i>
   <i type="int" name="IBRION">    -1</i>
   <i type="int" name="MDALGO">     0</i>
   <i type="int" name="ISIF">     2</i>
   <i name="PSTRESS">      0.00000000</i>
   <i name="EDIFFG">      0.00001000</i>
   <i type="int" name="NFREE">     0</i>
   <i name="POTIM">      0.50000000</i>
   <i name="SMASS">     -3.00000000</i>
   <i name="SCALEE">      1.00000000</i>
  </separator>
  <separator name="ionic md" >
   <i name="TEBEG">      0.00010000</i>
   <i name="TEEND">      0.00010000</i>
   <i type="int" name="NBLOCK">     1</i>
   <i type="int" name="KBLOCK">     1</i>
   <i type="int" name="NPACO">   256</i>
   <i name="APACO">     16.00000000</i>
  </separator>
  <separator name="symmetry" >
   <i type="int" name="ISYM">     2</i>
   <i name="SYMPREC">      0.00001000</i>
  </separator>
  <separator name="dos" >
   <i type="int" name="LORBIT">     0</i>
   <v name="RWIGS">     -1.00000000</v>
   <i type="int" name="NEDOS">   301</i>
   <i name="EMIN">     10.00000000</i>
   <i name="EMAX">    -10.00000000</i>
   <i name="EFERMI">      0.00000000</i>
  </separator>
  <separator name="writing" >
   <i type="int" name="NWRITE">     2</i>
   <i type="logical" name="LWAVE"> T  </i>
   <i type="logical" name="LDOWNSAMPLE"> F  </i>
   <i type="logical" name="LCHARG"> T  </i>
   <i type="logical" name="LPARD"> F  </i>
   <i type="logical" name="LVTOT"> F  </i>
   <i type="logical" name="LVHAR"> F  </i>
   <i type="logical" name="LELF"> F  </i>
   <i type="logical" name="LOPTICS"> F  </i>
   <v name="STM">      0.00000000      0.00000000      0.00000000      0.00000000      0.00000000      0.00000000      0.00000000</v>
  </separator>
  <separator name="performance" >
   <i type="int" name="NPAR">     1</i>
   <i type="int" name="NSIM">     4</i>
   <i type="int" name="NBLK">    -1</i>
   <i type="logical" name="LPLANE"> T  </i>
   <i type="logical" name="LSCALAPACK"> F  </i>
   <i type="logical" name="LSCAAWARE"> F  </i>
   <i type="logical" name="LSCALU"> F  </i>
   <i type="logical" name="LASYNC"> F  </i>
   <i type="logical" name="LORBITALREAL"> F  </i>
  </separator>
  <separator name="miscellaneous" >
   <i type="int" name="IDIOT">     3</i>
   <i type="int" name="PHON_NSTRUCT">    -1</i>
   <i type="logical" name="LMUSIC"> F  </i>
   <v name="POMASS">     55.84700000</v>
   <v name="DARWINR">      0.00000000</v>
   <v name="DARWINV">      1.00000000</v>
   <i type="logical" name="LCORR"> T  </i>
  </separator>
  <i type="logical" name="GGA_COMPAT"> T  </i>
  <i type="logical" name="LBERRY"> F  </i>
  <i type="int" name="ICORELEVEL">     0</i>
  <i type="logical" name="LDAU"> F  </i>
  <i type="int" name="I_CONSTRAINED_M">     0</i>
  <separator name="electronic exchange-correlation" >
   <i type="string" name="GGA">PE</i>
   <i type="int" name="VOSKOWN">     0</i>
   <i type="logical" name="LHFCALC"> F  </i>
   <i type="string" name="PRECFOCK"></i>
   <i type="logical" name="LSYMGRAD"> F  </i>
   <i type="logical" name="LHFONE"> F  </i>
   <i type="logical" name="LRHFCALC"> F  </i>
   <i type="logical" name="LTHOMAS"> F  </i>
   <i type="logical" name="LMODELHF"> F  </i>
   <i type="logical" name="LFOCKACE"> F  </i>
   <i name="ENCUT4O">     -1.00000000</i>
   <i type="int" name="EXXOEP">     0</i>
   <i type="int" name="FOURORBIT">     0</i>
   <i name="AEXX">      0.00000000</i>
   <i name="HFALPHA">      0.00000000</i>
   <i name="MCALPHA">      0.00000000</i>
   <i name="ALDAX">      1.00000000</i>
   <i name="AGGAX">      1.00000000</i>
   <i name="ALDAC">      1.00000000</i>
   <i name="AGGAC">      1.00000000</i>
   <i type="int" name="NKREDX">     1</i>
   <i type="int" name="NKREDY">     1</i>
   <i type="int" name="NKREDZ">     1</i>
   <i type="logical" name="SHIFTRED"> F  </i>
   <i type="logical" name="ODDONLY"> F  </i>
   <i type="logical" name="EVENONLY"> F  </i>
   <i type="int" name="LMAXFOCK">     0</i>
   <i type="int" name="NMAXFOCKAE">     0</i>
   <i type="logical" name="LFOCKAEDFT"> F  </i>
   <i name="HFSCREEN">      0.00000000</i>
   <i name="HFSCREENC">      0.00000000</i>
   <i type="int" name="NBANDSGWLOW">     0</i>
  </separator>
  <separator name="vdW DFT" >
   <i type="logical" name="LUSE_VDW"> F  </i>
   <i name="Zab_VDW">     -0.84910000</i>
   <i name="PARAM1">      0.12340000</i>
   <i name="PARAM2">      1.00000000</i>
   <i name="PARAM3">      0.00000000</i>
  </separator>
  <separator name="model GW" >
   <i type="int" name="MODEL_GW">     0</i>
   <i name="MODEL_EPS0">      5.72509608</i>
   <i name="MODEL_ALPHA">      1.00000000</i>
  </separator>
  <separator name="linear response parameters" >
   <i type="logical" name="LEPSILON"> F  </i>
   <i type="logical" name="LRPA"> F  </i>
   <i type="logical" name="LNABLA"> F  </i>
   <i type="logical" name="LVEL"> F  </i>
   <i type="int" name="KINTER">     0</i>
   <i name="CSHIFT">      0.10000000</i>
   <i name="OMEGAMAX">     -1.00000000</i>
   <i name="DEG_THRESHOLD">      0.00200000</i>
   <i name="RTIME">     -0.10000000</i>
   <i name="WPLASMAI">      0.00000000</i>
   <v name="DFIELD">      0.00000000      0.00000000      0.00000000</v>
   <v name="WPLASMA">      0.00000000      0.00000000      0.00000000      0.00000000      0.00000000      0.00000000      0.00000000      0.00000000      0.00000000</v>
  </separator>
  <separator name="orbital magnetization" >
   <i type="logical" name="NUCIND"> F  </i>
   <v name="MAGPOS">      0.00000000      0.00000000      0.00000000</v>
   <i type="logical" name="LNICSALL"> T  </i>
   <i type="logical" name="ORBITALMAG"> F  </i>
   <i type="logical" name="LMAGBLOCH"> F  </i>
   <i type="logical" name="LCHIMAG"> F  </i>
   <i type="logical" name="LGAUGE"> T  </i>
   <i type="int" name="MAGATOM">     0</i>
   <v name="MAGDIPOL">      0.00000000      0.00000000      0.00000000</v>
   <v name="AVECCONST">      0.00000000      0.00000000      0.00000000</v>
  </separator>
  <separator name="response functions" >
   <i type="logical" name="LFINITE_TEMPERATURE"> F  </i>
   <i type="logical" name="LADDER"> F  </i>
   <i type="logical" name="LRPAFORCE"> F  </i>
   <i type="logical" name="LFXC"> F  </i>
   <i type="logical" name="LHARTREE"> T  </i>
   <i type="int" name="IBSE">     0</i>
   <v type="int" name="KPOINT">    -1     0     0     0</v>
   <i type="logical" name="LTCTC"> F  </i>
   <i type="logical" name="LTCTE"> F  </i>
   <i type="logical" name="LTETE"> F  </i>
   <i type="logical" name="LTRIPLET"> F  </i>
   <i type="logical" name="LFXCEPS"> F  </i>
   <i type="logical" name="LFXHEG"> F  </i>
   <i type="int" name="NATURALO">     2</i>
   <i type="logical" name="LHOLEGF"> F  </i>
   <i type="logical" name="L2ORDER"> F  </i>
   <i type="logical" name="LDMP1"> F  </i>
   <i type="logical" name="LMP2LT"> F  </i>
   <i type="logical" name="LSMP2LT"> F  </i>
   <i type="logical" name="LGWLF"> F  </i>
   <i name="ENCUTGW">     -2.00000000</i>
   <i name="ENCUTGWSOFT">     -2.00000000</i>
   <i name="ENCUTLF">     -1.00000000</i>
   <i type="logical" name="LESF_SPLINES"> F  </i>
   <i type="int" name="LMAXMP2">    -1</i>
   <i name="SCISSOR">      0.00000000</i>
   <i type="int" name="NOMEGA">     0</i>
   <i type="int" name="NOMEGAR">     0</i>
   <i type="int" name="NBANDSGW">    -1</i>
   <i type="int" name="NBANDSO">    -1</i>
   <i type="int" name="NBANDSV">    -1</i>
   <i type="int" name="NELM">     1</i>
   <i type="int" name="NELMHF">     1</i>
   <i type="int" name="DIM">     3</i>
   <i type="int" name="IESPILON">     4</i>
   <i type="int" name="ANTIRES">     0</i>
   <i name="OMEGAMAX">    -30.00000000</i>
   <i name="OMEGAMIN">    -30.00000000</i>
   <i name="OMEGATL">   -200.00000000</i>
   <i type="int" name="OMEGAGRID">     0</i>
   <i name="CSHIFT">     -0.10000000</i>
   <i type="logical" name="LSELFENERGY"> F  </i>
   <i type="logical" name="LSPECTRAL"> F  </i>
   <i type="logical" name="LSPECTRALGW"> F  </i>
   <i type="logical" name="LSINGLES"> F  </i>
   <i type="logical" name="LFERMIGW"> F  </i>
   <i type="logical" name="ODDONLYGW"> F  </i>
   <i type="logical" name="EVENONLYGW"> F  </i>
   <i type="int" name="NKREDLFX">     1</i>
   <i type="int" name="NKREDLFY">     1</i>
   <i type="int" name="NKREDLFZ">     1</i>
   <i type="int" name="MAXMEM">  2800</i>
   <i type="int" name="TELESCOPE">     0</i>
   <i type="int" name="NTAUPAR">    -1</i>
   <i type="int" name="NOMEGAPAR">    -1</i>
   <i name="DAMP_NEWTON">      0.80000001</i>
   <i name="LAMBDA">      1.00000000</i>
  </separator>
  <separator name="External order field" >
   <i name="OFIELD_KAPPA">      0.00000000</i>
   <v name="OFIELD_K">      0.00000000      0.00000000      0.00000000</v>
   <i name="OFIELD_Q6_NEAR">      0.00000000</i>
   <i name="OFIELD_Q6_FAR">      0.00000000</i>
   <i name="OFIELD_A">      0.00000000</i>
  </separator>
 </parameters>
 <atominfo>
  <atoms>       2 </atoms>
  <types>       1 </types>
  <array name="atoms" >
   <dimension dim="1">ion</dimension>
   <field type="string">element</field>
   <field type="int">atomtype</field>
   <set>
    <rc><c>Fe</c><c>   1</c></rc>
    <rc><c>Fe</c><c>   1</c></rc>
   </set>
  </array>
  <array name="atomtypes" >
   <dimension dim="1">type</dimension>
   <field type="int">atomspertype</field>
   <field type="string">element</field>
   <field>mass</field>
   <field>valence</field>
   <field type="string">pseudopotential</field>
   <set>
    <rc><c>   2</c><c>Fe</c><c>     55.84700000</c><c>      8.00000000</c><c>  PAW_PBE Fe 06Sep2000                  </c></rc>
   </set>
  </array>
 </atominfo>
 <structure name="initialpos" >
  <crystal>
   <varray name="basis" >
    <v>       2.33000000       0.00000000       0.00000000 </v>
    <v>      -1.16500000       2.01783919       0.00000000 </v>
    <v>       0.00000000       0.00000000       4.05900000 </v>
   </varray>
   <i name="volume">     19.08365361 </i>
   <varray name="rec_basis" >
    <v>       0.42918455       0.24778982       0.00000000 </v>
    <v>       0.00000000       0.49557963       0.00000000 </v>
    <v>       0.00000000       0.00000000       0.24636610 </v>
   </varray>
  </crystal>
  <varray name="positions" >
   <v>       0.00000000       0.00000000       0.00000000 </v>
   <v>       0.33333333       0.66666667       0.50000000 </v>
  </varray>
 </structure>
 <calculation>
  <scstep>
   <time name="dav">    0.79    0.81</time>
   <time name="total">    0.80    0.82</time>
   <energy>
    <i name="alphaZ">    144.86487212 </i>
    <i name="ewald">  -1254.15947270 </i>
    <i name="hartreedc">   -197.61619789 </i>
    <i name="XCdc">      8.91801010 </i>
    <i name="pawpsdc">   1109.69170683 </i>
    <i name="pawaedc">  -1125.09647265 </i>
    <i name="eentropy">     -0.00018182 </i>
    <i name="bandstr">    184.85643531 </i>
    <i name="atom">   1188.57490811 </i>
    <i name="e_fr_energy">     60.03360740 </i>
    <i name="e_wo_entrp">     60.03378923 </i>
    <i name="e_0_energy">     60.03366801 </i>
   </energy>
  </scstep>
  <scstep>
   <time name="dav">    0.68    0.68</time>
   <time name="total">    0.69    0.69</time>
   <energy>
    <i name="e_fr_energy">    -14.74799973 </i>
    <i name="e_wo_entrp">    -14.74810047 </i>
    <i name="e_0_energy">    -14.74803331 </i>
   </energy>
  </scstep>
  <scstep>
   <time name="dav">    0.79    0.79</time>
   <time name="total">    0.79    0.79</time>
   <energy>
    <i name="e_fr_energy">    -18.99587134 </i>
    <i name="e_wo_entrp">    -18.99629179 </i>
    <i name="e_0_energy">    -18.99601149 </i>
   </energy>
  </scstep>
  <scstep>
   <time name="dav">    0.76    0.76</time>
   <time name="total">    0.76    0.76</time>
   <energy>
    <i name="e_fr_energy">    -19.01311307 </i>
    <i name="e_wo_entrp">    -19.01348893 </i>
    <i name="e_0_energy">    -19.01323836 </i>
   </energy>
  </scstep>
  <scstep>
   <time name="dav">    0.78    0.78</time>
   <time name="total">    0.81    0.81</time>
   <energy>
    <i name="e_fr_energy">    -19.01312752 </i>
    <i name="e_wo_entrp">    -19.01350334 </i>
    <i name="e_0_energy">    -19.01325280 </i>
   </energy>
  </scstep>
  <scstep>
   <time name="dav">    0.91    0.91</time>
   <time name="total">    0.94    0.94</time>
   <energy>
    <i name="e_fr_energy">    -16.23024196 </i>
    <i name="e_wo_entrp">    -16.23174322 </i>
    <i name="e_0_energy">    -16.23074238 </i>
   </energy>
  </scstep>
  <scstep>
   <time name="dav">    0.80    0.80</time>
   <time name="total">    0.84    0.84</time>
   <energy>
    <i name="e_fr_energy">    -16.08334375 </i>
    <i name="e_wo_entrp">    -16.08479109 </i>
    <i name="e_0_energy">    -16.08382620 </i>
   </energy>
  </scstep>
  <scstep>
   <time name="dav">    0.81    0.81</time>
   <time name="total">    0.85    0.85</time>
   <energy>
    <i name="e_fr_energy">    -16.05293584 </i>
    <i name="e_wo_entrp">    -16.05439638 </i>
    <i name="e_0_energy">    -16.05342269 </i>
   </energy>
  </scstep>
  <scstep>
   <time name="dav">    0.86    0.86</time>
   <time name="total">    0.89    0.89</time>
   <energy>
    <i name="e_fr_energy">    -16.04329464 </i>
    <i name="e_wo_entrp">    -16.04474731 </i>
    <i name="e_0_energy">    -16.04377886 </i>
   </energy>
  </scstep>
  <scstep>
   <time name="dav">    0.71    0.71</time>
   <time name="total">    0.74    0.74</time>
   <energy>
    <i name="e_fr_energy">    -16.04331399 </i>
    <i name="e_wo_entrp">    -16.04476209 </i>
    <i name="e_0_energy">    -16.04379669 </i>
   </energy>
  </scstep>
  <scstep>
   <time name="dav">    0.73    0.73</time>
   <time name="total">    0.76    0.76</time>
   <energy>
    <i name="e_fr_energy">    -16.04330282 </i>
    <i name="e_wo_entrp">    -16.04475104 </i>
    <i name="e_0_energy">    -16.04378556 </i>
   </energy>
  </scstep>
  <scstep>
   <time name="dav">    0.57    0.57</time>
   <time name="total">    0.60    0.60</time>
   <energy>
    <i name="e_fr_energy">    -16.04330182 </i>
    <i name="e_wo_entrp">    -16.04475033 </i>
    <i name="e_0_energy">    -16.04378465 </i>
   </energy>
  </scstep>
  <scstep>
   <time name="dav">    0.54    0.54</time>
   <time name="total">    0.55    0.55</time>
   <energy>
    <i name="alphaZ">    144.86487212 </i>
    <i name="ewald">  -1254.15947270 </i>
    <i name="hartreedc">   -163.75014924 </i>
    <i name="XCdc">      7.32936148 </i>
    <i name="pawpsdc">   1555.70241528 </i>
    <i name="pawaedc">  -1573.84007313 </i>
    <i name="eentropy">      0.00144850 </i>
    <i name="bandstr">     79.23338745 </i>
    <i name="atom">   1188.57490811 </i>
    <i name="e_fr_energy">    -16.04330213 </i>
    <i name="e_wo_entrp">    -16.04475063 </i>
    <i name="e_0_energy">    -16.04378497 </i>
   </energy>
  </scstep>
  <structure>
   <crystal>
    <varray name="basis" >
     <v>       2.33000000       0.00000000       0.00000000 </v>
     <v>      -1.16500000       2.01783919       0.00000000 </v>
     <v>       0.00000000       0.00000000       4.05900000 </v>
    </varray>
    <i name="volume">     19.08365361 </i>
    <varray name="rec_basis" >
     <v>       0.42918455       0.24778982       0.00000000 </v>
     <v>       0.00000000       0.49557963       0.00000000 </v>
     <v>       0.00000000       0.00000000       0.24636610 </v>
    </varray>
   </crystal>
   <varray name="positions" >
    <v>       0.00000000       0.00000000       0.00000000 </v>
    <v>       0.33333333       0.66666667       0.50000000 </v>
   </varray>
  </structure>
  <varray name="forces" >
   <v>      -0.00000000       0.00000000       0.00000000 </v>
   <v>       0.00000000      -0.00000000      -0.00000000 </v>
  </varray>
  <varray name="stress" >
   <v>     392.22815787      -0.00000000       0.00000000 </v>
   <v>      -0.00000000     392.22815787       0.00000000 </v>
   <v>       0.00000000       0.00000000    -129.89448360 </v>
  </varray>
  <energy>
   <i name="e_fr_energy">    -16.04330213 </i>
   <i name="e_wo_entrp">    -16.04475063 </i>
   <i name="e_0_energy">    -16.04378497 </i>
  </energy>
  <time name="totalsc">   10.33   10.35</time>
  <eigenvalues>
   <array>
    <dimension dim="1">band</dimension>
    <dimension dim="2">kpoint</dimension>
    <dimension dim="3">spin</dimension>
    <field>eigene</field>
    <field>occ</field>
    <set>
     <set comment="spin 1">
      <set comment="kpoint 1">
       <r>   -1.6143    1.0000 </r>
       <r>    2.2991    1.0000 </r>
       <r>    5.3257    1.0000 </r>
       <r>    5.9282    1.0000 </r>
       <r>    5.9283    1.0000 </r>
       <r>    6.2840    1.0000 </r>
       <r>    6.2841    1.0000 </r>
       <r>    7.0286    1.0000 </r>
       <r>    7.2579    1.0087 </r>
       <r>    7.2579    1.0087 </r>
       <r>    8.4773   -0.0000 </r>
       <r>    8.4774   -0.0000 </r>
       <r>   15.7381    0.0000 </r>
       <r>   31.4982    0.0000 </r>
       <r>   32.1846    0.0000 </r>
       <r>   34.7184    0.0000 </r>
       <r>   37.3297    0.0000 </r>
       <r>   37.3297    0.0000 </r>
       <r>   38.1055    0.0000 </r>
       <r>   38.1057    0.0000 </r>
       <r>   39.4884    0.0000 </r>
       <r>   40.8556    0.0000 </r>
       <r>   40.8557    0.0000 </r>
       <r>   41.9311    0.0000 </r>
       <r>   44.8285    0.0000 </r>
       <r>   44.8285    0.0000 </r>
       <r>   45.9655    0.0000 </r>
       <r>   48.9078    0.0000 </r>
       <r>   48.9082    0.0000 </r>
       <r>   50.8532    0.0000 </r>
       <r>   50.8533    0.0000 </r>
       <r>   53.6515    0.0000 </r>
       <r>   61.5474    0.0000 </r>
       <r>   63.2547    0.0000 </r>
       <r>   63.2795    0.0000 </r>
       <r>   63.2804    0.0000 </r>
       <r>   64.5328    0.0000 </r>
       <r>   66.0512    0.0000 </r>
       <r>   66.0524    0.0000 </r>
       <r>   67.9398    0.0000 </r>
      </set>
      <set comment="kpoint 2">
       <r>   -1.2689    1.0000 </r>
       <r>    2.5557    1.0000 </r>
       <r>    5.3077    1.0000 </r>
       <r>    5.8888    1.0000 </r>
       <r>    6.0725    1.0000 </r>
       <r>    6.1368    1.0000 </r>
       <r>    6.1650    1.0000 </r>
       <r>    6.4783    1.0000 </r>
       <r>    7.1081    1.0004 </r>
       <r>    7.1343    1.0008 </r>
       <r>    8.5170   -0.0000 </r>
       <r>    9.7022   -0.0000 </r>
       <r>   15.7580    0.0000 </r>
       <r>   30.3494    0.0000 </r>
       <r>   32.5179    0.0000 </r>
       <r>   33.1068    0.0000 </r>
       <r>   34.4636    0.0000 </r>
       <r>   36.7287    0.0000 </r>
       <r>   36.7520    0.0000 </r>
       <r>   39.3248    0.0000 </r>
       <r>   40.3233    0.0000 </r>
       <r>   41.1201    0.0000 </r>
       <r>   41.5846    0.0000 </r>
       <r>   41.8355    0.0000 </r>
       <r>   45.9828    0.0000 </r>
       <r>   46.2949    0.0000 </r>
       <r>   46.3091    0.0000 </r>
       <r>   46.6222    0.0000 </r>
       <r>   50.1333    0.0000 </r>
       <r>   52.3037    0.0000 </r>
       <r>   53.3411    0.0000 </r>
       <r>   55.4451    0.0000 </r>
       <r>   60.4621    0.0000 </r>
       <r>   62.2941    0.0000 </r>
       <r>   62.6364    0.0000 </r>
       <r>   62.9788    0.0000 </r>
       <r>   63.1874    0.0000 </r>
       <r>   66.7665    0.0000 </r>
       <r>   67.9089    0.0000 </r>
       <r>   68.2011    0.0000 </r>
      </set>
      <set comment="kpoint 3">
       <r>   -0.2956    1.0000 </r>
       <r>    3.1546    1.0000 </r>
       <r>    4.8961    1.0000 </r>
       <r>    5.0594    1.0000 </r>
       <r>    5.7124    1.0000 </r>
       <r>    6.3327    1.0000 </r>
       <r>    6.7167    1.0000 </r>
       <r>    6.7387    1.0000 </r>
       <r>    6.8423    1.0000 </r>
       <r>    7.0094    1.0000 </r>
       <r>    8.5835   -0.0000 </r>
       <r>   11.6462   -0.0000 </r>
       <r>   15.8452    0.0000 </r>
       <r>   26.6720    0.0000 </r>
       <r>   31.5167    0.0000 </r>
       <r>   31.8357    0.0000 </r>
       <r>   32.2676    0.0000 </r>
       <r>   33.4306    0.0000 </r>
       <r>   37.5003    0.0000 </r>
       <r>   38.6568    0.0000 </r>
       <r>   39.2544    0.0000 </r>
       <r>   39.4996    0.0000 </r>
       <r>   42.3326    0.0000 </r>
       <r>   43.5023    0.0000 </r>
       <r>   46.0714    0.0000 </r>
       <r>   47.0492    0.0000 </r>
       <r>   48.6248    0.0000 </r>
       <r>   50.9533    0.0000 </r>
       <r>   53.1953    0.0000 </r>
       <r>   55.4655    0.0000 </r>
       <r>   56.0821    0.0000 </r>
       <r>   58.7315    0.0000 </r>
       <r>   58.8638    0.0000 </r>
       <r>   59.9224    0.0000 </r>
       <r>   60.6122    0.0000 </r>
       <r>   61.9738    0.0000 </r>
       <r>   64.0375    0.0000 </r>
       <r>   67.6972    0.0000 </r>
       <r>   67.7690    0.0000 </r>
       <r>   69.1106    0.0000 </r>
      </set>
      <set comment="kpoint 4">
       <r>    1.0720    1.0000 </r>
       <r>    3.4285    1.0000 </r>
       <r>    3.9805    1.0000 </r>
       <r>    4.9944    1.0000 </r>
       <r>    5.5368    1.0000 </r>
       <r>    6.2781    1.0000 </r>
       <r>    6.5095    1.0000 </r>
       <r>    7.1426    1.0009 </r>
       <r>    7.5409    0.9002 </r>
       <r>    7.7557    0.1212 </r>
       <r>    8.6244   -0.0000 </r>
       <r>   13.8220    0.0000 </r>
       <r>   16.0404    0.0000 </r>
       <r>   22.6424    0.0000 </r>
       <r>   28.6151    0.0000 </r>
       <r>   29.0022    0.0000 </r>
       <r>   30.2999    0.0000 </r>
       <r>   33.2035    0.0000 </r>
       <r>   35.7500    0.0000 </r>
       <r>   38.8526    0.0000 </r>
       <r>   39.1927    0.0000 </r>
       <r>   39.5372    0.0000 </r>
       <r>   39.9440    0.0000 </r>
       <r>   43.8039    0.0000 </r>
       <r>   49.6115    0.0000 </r>
       <r>   51.2396    0.0000 </r>
       <r>   52.1741    0.0000 </r>
       <r>   53.7206    0.0000 </r>
       <r>   54.9735    0.0000 </r>
       <r>   55.8904    0.0000 </r>
       <r>   57.5142    0.0000 </r>
       <r>   59.0537    0.0000 </r>
       <r>   60.1177    0.0000 </r>
       <r>   60.6493    0.0000 </r>
       <r>   61.4266    0.0000 </r>
       <r>   63.3707    0.0000 </r>
       <r>   64.4911    0.0000 </r>
       <r>   67.6290    0.0000 </r>
       <r>   68.3011    0.0000 </r>
       <r>   68.9250    0.0000 </r>
      </set>
      <set comment="kpoint 5">
       <r>    2.2637    1.0000 </r>
       <r>    3.1437    1.0000 </r>
       <r>    3.3668    1.0000 </r>
       <r>    5.2121    1.0000 </r>
       <r>    5.8691    1.0000 </r>
       <r>    5.9336    1.0000 </r>
       <r>    6.2357    1.0000 </r>
       <r>    8.3724   -0.0000 </r>
       <r>    8.4566   -0.0000 </r>
       <r>    8.5098   -0.0000 </r>
       <r>    8.6378   -0.0000 </r>
       <r>   15.8297    0.0000 </r>
       <r>   16.1314    0.0000 </r>
       <r>   19.7786    0.0000 </r>
       <r>   25.3096    0.0000 </r>
       <r>   27.0710    0.0000 </r>
       <r>   27.5362    0.0000 </r>
       <r>   32.2768    0.0000 </r>
       <r>   34.6026    0.0000 </r>
       <r>   37.8467    0.0000 </r>
       <r>   38.4676    0.0000 </r>
       <r>   40.4697    0.0000 </r>
       <r>   41.2805    0.0000 </r>
       <r>   44.1097    0.0000 </r>
       <r>   51.7795    0.0000 </r>
       <r>   52.8072    0.0000 </r>
       <r>   53.2003    0.0000 </r>
       <r>   56.4066    0.0000 </r>
       <r>   56.6829    0.0000 </r>
       <r>   57.2200    0.0000 </r>
       <r>   59.5055    0.0000 </r>
       <r>   60.2197    0.0000 </r>
       <r>   60.9031    0.0000 </r>
       <r>   61.3254    0.0000 </r>
       <r>   63.0622    0.0000 </r>
       <r>   64.6960    0.0000 </r>
       <r>   67.2436    0.0000 </r>
       <r>   67.7861    0.0000 </r>
       <r>   68.2256    0.0000 </r>
       <r>   68.5458    0.0000 </r>
      </set>
      <set comment="kpoint 6">
       <r>    2.6838    1.0000 </r>
       <r>    2.9252    1.0000 </r>
       <r>    3.0606    1.0000 </r>
       <r>    5.6324    1.0000 </r>
       <r>    5.7833    1.0000 </r>
       <r>    6.0834    1.0000 </r>
       <r>    6.1918    1.0000 </r>
       <r>    8.6373   -0.0000 </r>
       <r>    8.8891   -0.0000 </r>
       <r>    9.0206   -0.0000 </r>
       <r>   10.2253   -0.0000 </r>
       <r>   13.8290    0.0000 </r>
       <r>   18.3051    0.0000 </r>
       <r>   19.8156    0.0000 </r>
       <r>   22.6534    0.0000 </r>
       <r>   24.8573    0.0000 </r>
       <r>   25.9887    0.0000 </r>
       <r>   31.6270    0.0000 </r>
       <r>   34.2414    0.0000 </r>
       <r>   36.6753    0.0000 </r>
       <r>   38.2916    0.0000 </r>
       <r>   41.3490    0.0000 </r>
       <r>   43.5172    0.0000 </r>
       <r>   44.1294    0.0000 </r>
       <r>   48.4084    0.0000 </r>
       <r>   53.5350    0.0000 </r>
       <r>   54.7141    0.0000 </r>
       <r>   58.5775    0.0000 </r>
       <r>   58.8904    0.0000 </r>
       <r>   59.5675    0.0000 </r>
       <r>   60.8971    0.0000 </r>
       <r>   61.6699    0.0000 </r>
       <r>   61.7716    0.0000 </r>
       <r>   63.8044    0.0000 </r>
       <r>   64.1663    0.0000 </r>
       <r>   65.7234    0.0000 </r>
       <r>   66.9025    0.0000 </r>
       <r>   67.1172    0.0000 </r>
       <r>   68.5331    0.0000 </r>
       <r>   68.9691    0.0000 </r>
      </set>
      <set comment="kpoint 7">
       <r>   -0.6066    1.0000 </r>
       <r>    3.0035    1.0000 </r>
       <r>    5.1042    1.0000 </r>
       <r>    5.2063    1.0000 </r>
       <r>    5.9344    1.0000 </r>
       <r>    6.0008    1.0000 </r>
       <r>    6.5605    1.0000 </r>
       <r>    6.6794    1.0000 </r>
       <r>    6.8912    1.0000 </r>
       <r>    7.1058    1.0004 </r>
       <r>    8.5345   -0.0000 </r>
       <r>   11.1057   -0.0000 </r>
       <r>   15.8147    0.0000 </r>
       <r>   28.3674    0.0000 </r>
       <r>   29.8126    0.0000 </r>
       <r>   32.9453    0.0000 </r>
       <r>   33.8921    0.0000 </r>
       <r>   35.4110    0.0000 </r>
       <r>   35.7259    0.0000 </r>
       <r>   37.6343    0.0000 </r>
       <r>   38.8729    0.0000 </r>
       <r>   43.0995    0.0000 </r>
       <r>   43.1767    0.0000 </r>
       <r>   44.1447    0.0000 </r>
       <r>   44.9182    0.0000 </r>
       <r>   45.1886    0.0000 </r>
       <r>   45.3820    0.0000 </r>
       <r>   51.4143    0.0000 </r>
       <r>   53.7039    0.0000 </r>
       <r>   54.1416    0.0000 </r>
       <r>   54.2437    0.0000 </r>
       <r>   57.9848    0.0000 </r>
       <r>   59.2417    0.0000 </r>
       <r>   60.6715    0.0000 </r>
       <r>   61.3660    0.0000 </r>
       <r>   62.0194    0.0000 </r>
       <r>   63.2527    0.0000 </r>
       <r>   67.7522    0.0000 </r>
       <r>   67.8634    0.0000 </r>
       <r>   69.6507    0.0000 </r>
      </set>
      <set comment="kpoint 8">
       <r>    0.5920    1.0000 </r>
       <r>    3.5670    1.0000 </r>
       <r>    4.3142    1.0000 </r>
       <r>    4.7587    1.0000 </r>
       <r>    5.6337    1.0000 </r>
       <r>    6.2219    1.0000 </r>
       <r>    6.4740    1.0000 </r>
       <r>    6.8362    1.0000 </r>
       <r>    7.3197    1.0201 </r>
       <r>    7.6643    0.4502 </r>
       <r>    8.5435   -0.0000 </r>
       <r>   13.0606   -0.0000 </r>
       <r>   16.0064    0.0000 </r>
       <r>   24.6955    0.0000 </r>
       <r>   27.3627    0.0000 </r>
       <r>   30.4133    0.0000 </r>
       <r>   32.6777    0.0000 </r>
       <r>   33.1707    0.0000 </r>
       <r>   36.4135    0.0000 </r>
       <r>   36.9975    0.0000 </r>
       <r>   37.8728    0.0000 </r>
       <r>   42.5769    0.0000 </r>
       <r>   42.6010    0.0000 </r>
       <r>   43.7569    0.0000 </r>
       <r>   46.8386    0.0000 </r>
       <r>   47.7142    0.0000 </r>
       <r>   49.6808    0.0000 </r>
       <r>   54.0807    0.0000 </r>
       <r>   56.0640    0.0000 </r>
       <r>   56.6272    0.0000 </r>
       <r>   56.9350    0.0000 </r>
       <r>   59.0438    0.0000 </r>
       <r>   59.5865    0.0000 </r>
       <r>   60.2787    0.0000 </r>
       <r>   61.0239    0.0000 </r>
       <r>   61.4588    0.0000 </r>
       <r>   63.8959    0.0000 </r>
       <r>   67.6344    0.0000 </r>
       <r>   68.3737    0.0000 </r>
       <r>   69.6429    0.0000 </r>
      </set>
      <set comment="kpoint 9">
       <r>    1.9684    1.0000 </r>
       <r>    3.4910    1.0000 </r>
       <r>    3.6382    1.0000 </r>
       <r>    4.8440    1.0000 </r>
       <r>    5.7084    1.0000 </r>
       <r>    5.8573    1.0000 </r>
       <r>    6.4412    1.0000 </r>
       <r>    7.2919    1.0143 </r>
       <r>    8.1561   -0.0011 </r>
       <r>    8.5415   -0.0000 </r>
       <r>    8.6735   -0.0000 </r>
       <r>   15.2749    0.0000 </r>
       <r>   16.2938    0.0000 </r>
       <r>   20.9852    0.0000 </r>
       <r>   25.5967    0.0000 </r>
       <r>   27.0473    0.0000 </r>
       <r>   29.8946    0.0000 </r>
       <r>   31.4887    0.0000 </r>
       <r>   35.7300    0.0000 </r>
       <r>   36.8940    0.0000 </r>
       <r>   38.4027    0.0000 </r>
       <r>   42.1184    0.0000 </r>
       <r>   42.2262    0.0000 </r>
       <r>   44.9985    0.0000 </r>
       <r>   48.8928    0.0000 </r>
       <r>   51.5793    0.0000 </r>
       <r>   53.1704    0.0000 </r>
       <r>   53.8681    0.0000 </r>
       <r>   55.0521    0.0000 </r>
       <r>   57.6896    0.0000 </r>
       <r>   58.7844    0.0000 </r>
       <r>   60.3388    0.0000 </r>
       <r>   61.1514    0.0000 </r>
       <r>   61.1906    0.0000 </r>
       <r>   62.5567    0.0000 </r>
       <r>   64.1810    0.0000 </r>
       <r>   66.5426    0.0000 </r>
       <r>   67.2886    0.0000 </r>
       <r>   67.7890    0.0000 </r>
       <r>   69.6223    0.0000 </r>
      </set>
      <set comment="kpoint 10">
       <r>    2.7929    1.0000 </r>
       <r>    3.1725    1.0000 </r>
       <r>    3.2283    1.0000 </r>
       <r>    5.2956    1.0000 </r>
       <r>    5.6473    1.0000 </r>
       <r>    6.0887    1.0000 </r>
       <r>    6.0916    1.0000 </r>
       <r>    8.2624   -0.0001 </r>
       <r>    8.5308   -0.0000 </r>
       <r>    8.7408   -0.0000 </r>
       <r>    9.9575   -0.0000 </r>
       <r>   15.3005    0.0000 </r>
       <r>   17.5906    0.0000 </r>
       <r>   19.5993    0.0000 </r>
       <r>   24.0243    0.0000 </r>
       <r>   24.2142    0.0000 </r>
       <r>   26.6517    0.0000 </r>
       <r>   30.5555    0.0000 </r>
       <r>   34.7536    0.0000 </r>
       <r>   36.3580    0.0000 </r>
       <r>   39.4532    0.0000 </r>
       <r>   42.4975    0.0000 </r>
       <r>   43.4013    0.0000 </r>
       <r>   44.6964    0.0000 </r>
       <r>   50.3691    0.0000 </r>
       <r>   51.6891    0.0000 </r>
       <r>   53.7147    0.0000 </r>
       <r>   55.3914    0.0000 </r>
       <r>   57.0556    0.0000 </r>
       <r>   58.9700    0.0000 </r>
       <r>   59.6584    0.0000 </r>
       <r>   61.1442    0.0000 </r>
       <r>   61.8564    0.0000 </r>
       <r>   64.0598    0.0000 </r>
       <r>   64.8978    0.0000 </r>
       <r>   65.7840    0.0000 </r>
       <r>   65.8198    0.0000 </r>
       <r>   67.9307    0.0000 </r>
       <r>   68.7899    0.0000 </r>
       <r>   69.3927    0.0000 </r>
      </set>
      <set comment="kpoint 11">
       <r>    2.8921    1.0000 </r>
       <r>    3.0921    1.0000 </r>
       <r>    3.1042    1.0000 </r>
       <r>    5.5928    1.0000 </r>
       <r>    5.6908    1.0000 </r>
       <r>    5.9375    1.0000 </r>
       <r>    6.2179    1.0000 </r>
       <r>    8.5242   -0.0000 </r>
       <r>    8.8130   -0.0000 </r>
       <r>    8.8356   -0.0000 </r>
       <r>   11.2353   -0.0000 </r>
       <r>   13.5227    0.0000 </r>
       <r>   19.1595    0.0000 </r>
       <r>   20.2611    0.0000 </r>
       <r>   22.2260    0.0000 </r>
       <r>   23.4045    0.0000 </r>
       <r>   25.1489    0.0000 </r>
       <r>   30.2252    0.0000 </r>
       <r>   34.3459    0.0000 </r>
       <r>   36.2055    0.0000 </r>
       <r>   39.6281    0.0000 </r>
       <r>   43.4650    0.0000 </r>
       <r>   43.5288    0.0000 </r>
       <r>   45.1563    0.0000 </r>
       <r>   48.1078    0.0000 </r>
       <r>   53.3845    0.0000 </r>
       <r>   53.7158    0.0000 </r>
       <r>   56.3728    0.0000 </r>
       <r>   58.6301    0.0000 </r>
       <r>   58.7978    0.0000 </r>
       <r>   61.9840    0.0000 </r>
       <r>   62.0129    0.0000 </r>
       <r>   62.0168    0.0000 </r>
       <r>   62.3257    0.0000 </r>
       <r>   64.9636    0.0000 </r>
       <r>   67.5268    0.0000 </r>
       <r>   67.5914    0.0000 </r>
       <r>   67.6903    0.0000 </r>
       <r>   67.9788    0.0000 </r>
       <r>   70.6685    0.0000 </r>
      </set>
      <set comment="kpoint 12">
       <r>    1.8821    1.0000 </r>
       <r>    3.7975    1.0000 </r>
       <r>    4.0240    1.0000 </r>
       <r>    4.2767    1.0000 </r>
       <r>    5.7022    1.0000 </r>
       <r>    5.7492    1.0000 </r>
       <r>    6.6026    1.0000 </r>
       <r>    6.7396    1.0000 </r>
       <r>    8.1317   -0.0018 </r>
       <r>    8.4382   -0.0000 </r>
       <r>    8.7422   -0.0000 </r>
       <r>   15.0029    0.0000 </r>
       <r>   16.4669    0.0000 </r>
       <r>   22.6547    0.0000 </r>
       <r>   23.5184    0.0000 </r>
       <r>   28.5054    0.0000 </r>
       <r>   30.1068    0.0000 </r>
       <r>   32.2622    0.0000 </r>
       <r>   33.0248    0.0000 </r>
       <r>   38.0160    0.0000 </r>
       <r>   39.4899    0.0000 </r>
       <r>   43.6128    0.0000 </r>
       <r>   43.6722    0.0000 </r>
       <r>   46.0381    0.0000 </r>
       <r>   46.7806    0.0000 </r>
       <r>   48.8657    0.0000 </r>
       <r>   50.2615    0.0000 </r>
       <r>   55.3316    0.0000 </r>
       <r>   55.9246    0.0000 </r>
       <r>   57.4434    0.0000 </r>
       <r>   57.4846    0.0000 </r>
       <r>   60.6335    0.0000 </r>
       <r>   60.6678    0.0000 </r>
       <r>   63.0882    0.0000 </r>
       <r>   63.4967    0.0000 </r>
       <r>   63.5835    0.0000 </r>
       <r>   63.9318    0.0000 </r>
       <r>   67.3429    0.0000 </r>
       <r>   67.7147    0.0000 </r>
       <r>   70.6656    0.0000 </r>
      </set>
      <set comment="kpoint 13">
       <r>    3.0919    1.0000 </r>
       <r>    3.4531    1.0000 </r>
       <r>    3.7287    1.0000 </r>
       <r>    4.5017    1.0000 </r>
       <r>    5.4861    1.0000 </r>
       <r>    6.0000    1.0000 </r>
       <r>    6.1814    1.0000 </r>
       <r>    7.3425    1.0254 </r>
       <r>    8.3472   -0.0000 </r>
       <r>    8.6796   -0.0000 </r>
       <r>   10.1005   -0.0000 </r>
       <r>   16.8948    0.0000 </r>
       <r>   17.2487    0.0000 </r>
       <r>   19.8054    0.0000 </r>
       <r>   21.8441    0.0000 </r>
       <r>   25.9121    0.0000 </r>
       <r>   28.4331    0.0000 </r>
       <r>   28.7777    0.0000 </r>
       <r>   31.6819    0.0000 </r>
       <r>   39.9879    0.0000 </r>
       <r>   40.1424    0.0000 </r>
       <r>   43.5739    0.0000 </r>
       <r>   45.6730    0.0000 </r>
       <r>   46.8408    0.0000 </r>
       <r>   48.1779    0.0000 </r>
       <r>   50.0247    0.0000 </r>
       <r>   51.4959    0.0000 </r>
       <r>   53.1355    0.0000 </r>
       <r>   56.3012    0.0000 </r>
       <r>   57.1465    0.0000 </r>
       <r>   59.1191    0.0000 </r>
       <r>   61.0745    0.0000 </r>
       <r>   62.2182    0.0000 </r>
       <r>   63.5367    0.0000 </r>
       <r>   65.4504    0.0000 </r>
       <r>   65.7439    0.0000 </r>
       <r>   67.0745    0.0000 </r>
       <r>   67.9696    0.0000 </r>
       <r>   69.1167    0.0000 </r>
       <r>   70.5328    0.0000 </r>
      </set>
      <set comment="kpoint 14">
       <r>    3.2888    1.0000 </r>
       <r>    3.4169    1.0000 </r>
       <r>    3.5670    1.0000 </r>
       <r>    5.0375    1.0000 </r>
       <r>    5.4870    1.0000 </r>
       <r>    5.7631    1.0000 </r>
       <r>    6.2853    1.0000 </r>
       <r>    8.0899   -0.0042 </r>
       <r>    8.2958   -0.0000 </r>
       <r>    8.7066   -0.0000 </r>
       <r>   11.7728   -0.0000 </r>
       <r>   14.9677    0.0000 </r>
       <r>   19.5382    0.0000 </r>
       <r>   20.1156    0.0000 </r>
       <r>   21.0431    0.0000 </r>
       <r>   23.2443    0.0000 </r>
       <r>   25.8168    0.0000 </r>
       <r>   27.7802    0.0000 </r>
       <r>   31.0170    0.0000 </r>
       <r>   39.9165    0.0000 </r>
       <r>   41.9712    0.0000 </r>
       <r>   43.9727    0.0000 </r>
       <r>   45.5688    0.0000 </r>
       <r>   46.4562    0.0000 </r>
       <r>   50.3863    0.0000 </r>
       <r>   50.5657    0.0000 </r>
       <r>   52.5114    0.0000 </r>
       <r>   52.9411    0.0000 </r>
       <r>   56.8223    0.0000 </r>
       <r>   57.8466    0.0000 </r>
       <r>   58.4215    0.0000 </r>
       <r>   61.4123    0.0000 </r>
       <r>   62.0325    0.0000 </r>
       <r>   62.2939    0.0000 </r>
       <r>   66.6391    0.0000 </r>
       <r>   67.0334    0.0000 </r>
       <r>   68.7741    0.0000 </r>
       <r>   68.8647    0.0000 </r>
       <r>   69.3754    0.0000 </r>
       <r>   69.8647    0.0000 </r>
      </set>
      <set comment="kpoint 15">
       <r>    3.4254    1.0000 </r>
       <r>    3.8414    1.0000 </r>
       <r>    4.1937    1.0000 </r>
       <r>    4.1951    1.0000 </r>
       <r>    5.3215    1.0000 </r>
       <r>    5.7721    1.0000 </r>
       <r>    6.3325    1.0000 </r>
       <r>    7.6272    0.6062 </r>
       <r>    8.1768   -0.0007 </r>
       <r>    8.6735   -0.0000 </r>
       <r>   11.9135   -0.0000 </r>
       <r>   17.1350    0.0000 </r>
       <r>   17.6795    0.0000 </r>
       <r>   19.5740    0.0000 </r>
       <r>   20.9348    0.0000 </r>
       <r>   25.1880    0.0000 </r>
       <r>   25.4214    0.0000 </r>
       <r>   27.5387    0.0000 </r>
       <r>   28.4405    0.0000 </r>
       <r>   41.7602    0.0000 </r>
       <r>   42.7378    0.0000 </r>
       <r>   46.1237    0.0000 </r>
       <r>   47.1211    0.0000 </r>
       <r>   47.9950    0.0000 </r>
       <r>   48.1711    0.0000 </r>
       <r>   48.5393    0.0000 </r>
       <r>   51.2450    0.0000 </r>
       <r>   53.7979    0.0000 </r>
       <r>   54.1151    0.0000 </r>
       <r>   57.4162    0.0000 </r>
       <r>   58.1740    0.0000 </r>
       <r>   60.7587    0.0000 </r>
       <r>   61.9226    0.0000 </r>
       <r>   62.4509    0.0000 </r>
       <r>   66.4217    0.0000 </r>
       <r>   67.4616    0.0000 </r>
       <r>   67.4904    0.0000 </r>
       <r>   69.0772    0.0000 </r>
       <r>   69.9087    0.0000 </r>
       <r>   70.8046    0.0000 </r>
      </set>
      <set comment="kpoint 16">
       <r>    3.4431    1.0000 </r>
       <r>    3.9765    1.0000 </r>
       <r>    4.0434    1.0000 </r>
       <r>    4.5711    1.0000 </r>
       <r>    5.3934    1.0000 </r>
       <r>    5.4594    1.0000 </r>
       <r>    6.4897    1.0000 </r>
       <r>    8.0234   -0.0124 </r>
       <r>    8.1116   -0.0027 </r>
       <r>    8.3475   -0.0000 </r>
       <r>   13.7130    0.0000 </r>
       <r>   15.1096    0.0000 </r>
       <r>   17.2952    0.0000 </r>
       <r>   21.5949    0.0000 </r>
       <r>   21.9023    0.0000 </r>
       <r>   23.0589    0.0000 </r>
       <r>   25.0506    0.0000 </r>
       <r>   25.8702    0.0000 </r>
       <r>   27.8182    0.0000 </r>
       <r>   42.1681    0.0000 </r>
       <r>   45.0019    0.0000 </r>
       <r>   46.3532    0.0000 </r>
       <r>   46.3676    0.0000 </r>
       <r>   47.4117    0.0000 </r>
       <r>   49.0250    0.0000 </r>
       <r>   49.6476    0.0000 </r>
       <r>   52.8578    0.0000 </r>
       <r>   52.8749    0.0000 </r>
       <r>   53.2903    0.0000 </r>
       <r>   56.7303    0.0000 </r>
       <r>   58.1126    0.0000 </r>
       <r>   58.7006    0.0000 </r>
       <r>   61.7123    0.0000 </r>
       <r>   62.0186    0.0000 </r>
       <r>   66.6262    0.0000 </r>
       <r>   67.6123    0.0000 </r>
       <r>   69.4211    0.0000 </r>
       <r>   69.6490    0.0000 </r>
       <r>   69.7420    0.0000 </r>
       <r>   69.7935    0.0000 </r>
      </set>
      <set comment="kpoint 17">
       <r>   -1.5289    1.0000 </r>
       <r>    2.2741    1.0000 </r>
       <r>    5.3008    1.0000 </r>
       <r>    5.9170    1.0000 </r>
       <r>    5.9171    1.0000 </r>
       <r>    6.2638    1.0000 </r>
       <r>    6.2638    1.0000 </r>
       <r>    6.7944    1.0000 </r>
       <r>    7.3024    1.0164 </r>
       <r>    7.3025    1.0164 </r>
       <r>    8.4679   -0.0000 </r>
       <r>    8.4679   -0.0000 </r>
       <r>   16.1300    0.0000 </r>
       <r>   31.0789    0.0000 </r>
       <r>   32.0615    0.0000 </r>
       <r>   34.5354    0.0000 </r>
       <r>   37.3774    0.0000 </r>
       <r>   37.3775    0.0000 </r>
       <r>   38.1143    0.0000 </r>
       <r>   38.1145    0.0000 </r>
       <r>   39.9166    0.0000 </r>
       <r>   40.7846    0.0000 </r>
       <r>   40.7846    0.0000 </r>
       <r>   42.2067    0.0000 </r>
       <r>   44.4884    0.0000 </r>
       <r>   44.4884    0.0000 </r>
       <r>   46.2328    0.0000 </r>
       <r>   49.1681    0.0000 </r>
       <r>   49.1685    0.0000 </r>
       <r>   51.2687    0.0000 </r>
       <r>   51.2688    0.0000 </r>
       <r>   53.4963    0.0000 </r>
       <r>   60.6588    0.0000 </r>
       <r>   63.0746    0.0000 </r>
       <r>   63.0755    0.0000 </r>
       <r>   63.4129    0.0000 </r>
       <r>   64.7430    0.0000 </r>
       <r>   64.7437    0.0000 </r>
       <r>   65.5281    0.0000 </r>
       <r>   67.5591    0.0000 </r>
      </set>
      <set comment="kpoint 18">
       <r>   -1.1856    1.0000 </r>
       <r>    2.5353    1.0000 </r>
       <r>    5.2991    1.0000 </r>
       <r>    5.8480    1.0000 </r>
       <r>    5.8756    1.0000 </r>
       <r>    6.1203    1.0000 </r>
       <r>    6.2305    1.0000 </r>
       <r>    6.4544    1.0000 </r>
       <r>    7.1604    1.0014 </r>
       <r>    7.1877    1.0025 </r>
       <r>    8.5035   -0.0000 </r>
       <r>    9.5366   -0.0000 </r>
       <r>   16.1844    0.0000 </r>
       <r>   30.3124    0.0000 </r>
       <r>   31.9530    0.0000 </r>
       <r>   33.1132    0.0000 </r>
       <r>   34.5156    0.0000 </r>
       <r>   35.9885    0.0000 </r>
       <r>   37.4420    0.0000 </r>
       <r>   39.5134    0.0000 </r>
       <r>   40.0299    0.0000 </r>
       <r>   41.2144    0.0000 </r>
       <r>   41.6279    0.0000 </r>
       <r>   42.1683    0.0000 </r>
       <r>   45.6163    0.0000 </r>
       <r>   45.9428    0.0000 </r>
       <r>   47.0243    0.0000 </r>
       <r>   47.1237    0.0000 </r>
       <r>   50.0247    0.0000 </r>
       <r>   52.5891    0.0000 </r>
       <r>   53.5656    0.0000 </r>
       <r>   55.3688    0.0000 </r>
       <r>   59.3113    0.0000 </r>
       <r>   61.8554    0.0000 </r>
       <r>   62.6987    0.0000 </r>
       <r>   63.0746    0.0000 </r>
       <r>   64.0364    0.0000 </r>
       <r>   65.7099    0.0000 </r>
       <r>   66.9273    0.0000 </r>
       <r>   67.5972    0.0000 </r>
      </set>
      <set comment="kpoint 19">
       <r>   -0.2207    1.0000 </r>
       <r>    3.1492    1.0000 </r>
       <r>    4.8047    1.0000 </r>
       <r>    5.0794    1.0000 </r>
       <r>    5.6770    1.0000 </r>
       <r>    6.2396    1.0000 </r>
       <r>    6.6420    1.0000 </r>
       <r>    6.8761    1.0000 </r>
       <r>    6.9034    1.0000 </r>
       <r>    7.0406    1.0001 </r>
       <r>    8.5626   -0.0000 </r>
       <r>   11.2832   -0.0000 </r>
       <r>   16.3967    0.0000 </r>
       <r>   26.7279    0.0000 </r>
       <r>   31.2812    0.0000 </r>
       <r>   31.6119    0.0000 </r>
       <r>   32.6486    0.0000 </r>
       <r>   32.8910    0.0000 </r>
       <r>   37.2349    0.0000 </r>
       <r>   38.6387    0.0000 </r>
       <r>   39.0041    0.0000 </r>
       <r>   39.9134    0.0000 </r>
       <r>   42.6772    0.0000 </r>
       <r>   44.1079    0.0000 </r>
       <r>   46.3430    0.0000 </r>
       <r>   47.0265    0.0000 </r>
       <r>   48.4145    0.0000 </r>
       <r>   51.0136    0.0000 </r>
       <r>   53.0094    0.0000 </r>
       <r>   55.5864    0.0000 </r>
       <r>   56.3946    0.0000 </r>
       <r>   57.5439    0.0000 </r>
       <r>   58.4788    0.0000 </r>
       <r>   60.1578    0.0000 </r>
       <r>   61.1557    0.0000 </r>
       <r>   62.2335    0.0000 </r>
       <r>   64.0082    0.0000 </r>
       <r>   66.7705    0.0000 </r>
       <r>   67.8007    0.0000 </r>
       <r>   68.9307    0.0000 </r>
      </set>
      <set comment="kpoint 20">
       <r>    1.1220    1.0000 </r>
       <r>    3.4340    1.0000 </r>
       <r>    3.9520    1.0000 </r>
       <r>    5.0028    1.0000 </r>
       <r>    5.4841    1.0000 </r>
       <r>    6.3029    1.0000 </r>
       <r>    6.5331    1.0000 </r>
       <r>    7.1836    1.0023 </r>
       <r>    7.5528    0.8691 </r>
       <r>    7.7373    0.1745 </r>
       <r>    8.6011   -0.0000 </r>
       <r>   13.1096   -0.0000 </r>
       <r>   16.8862    0.0000 </r>
       <r>   22.7107    0.0000 </r>
       <r>   28.1685    0.0000 </r>
       <r>   29.1142    0.0000 </r>
       <r>   30.6182    0.0000 </r>
       <r>   33.0098    0.0000 </r>
       <r>   35.6599    0.0000 </r>
       <r>   37.8625    0.0000 </r>
       <r>   38.1082    0.0000 </r>
       <r>   40.5422    0.0000 </r>
       <r>   40.9594    0.0000 </r>
       <r>   44.6029    0.0000 </r>
       <r>   49.7264    0.0000 </r>
       <r>   51.0517    0.0000 </r>
       <r>   51.8193    0.0000 </r>
       <r>   52.2086    0.0000 </r>
       <r>   55.8775    0.0000 </r>
       <r>   56.2817    0.0000 </r>
       <r>   57.8102    0.0000 </r>
       <r>   59.3128    0.0000 </r>
       <r>   59.8442    0.0000 </r>
       <r>   59.8664    0.0000 </r>
       <r>   62.0116    0.0000 </r>
       <r>   63.0483    0.0000 </r>
       <r>   64.7546    0.0000 </r>
       <r>   67.3413    0.0000 </r>
       <r>   67.5244    0.0000 </r>
       <r>   68.8924    0.0000 </r>
      </set>
      <set comment="kpoint 21">
       <r>    2.2460    1.0000 </r>
       <r>    3.1091    1.0000 </r>
       <r>    3.4697    1.0000 </r>
       <r>    4.9855    1.0000 </r>
       <r>    5.9390    1.0000 </r>
       <r>    6.1549    1.0000 </r>
       <r>    6.2737    1.0000 </r>
       <r>    8.3757   -0.0000 </r>
       <r>    8.4161   -0.0000 </r>
       <r>    8.4362   -0.0000 </r>
       <r>    8.6557   -0.0000 </r>
       <r>   14.5412    0.0000 </r>
       <r>   17.4124    0.0000 </r>
       <r>   19.9102    0.0000 </r>
       <r>   24.9103    0.0000 </r>
       <r>   27.2005    0.0000 </r>
       <r>   27.9750    0.0000 </r>
       <r>   32.2490    0.0000 </r>
       <r>   34.5831    0.0000 </r>
       <r>   36.6005    0.0000 </r>
       <r>   39.1271    0.0000 </r>
       <r>   39.7460    0.0000 </r>
       <r>   41.8850    0.0000 </r>
       <r>   45.0904    0.0000 </r>
       <r>   50.2500    0.0000 </r>
       <r>   53.0714    0.0000 </r>
       <r>   54.1941    0.0000 </r>
       <r>   55.4293    0.0000 </r>
       <r>   56.4638    0.0000 </r>
       <r>   58.1715    0.0000 </r>
       <r>   59.3278    0.0000 </r>
       <r>   60.1394    0.0000 </r>
       <r>   61.2681    0.0000 </r>
       <r>   61.3780    0.0000 </r>
       <r>   63.1397    0.0000 </r>
       <r>   64.6529    0.0000 </r>
       <r>   66.7594    0.0000 </r>
       <r>   67.2692    0.0000 </r>
       <r>   68.5826    0.0000 </r>
       <r>   68.8114    0.0000 </r>
      </set>
      <set comment="kpoint 22">
       <r>    2.6082    1.0000 </r>
       <r>    2.7875    1.0000 </r>
       <r>    3.3405    1.0000 </r>
       <r>    5.0648    1.0000 </r>
       <r>    6.1255    1.0000 </r>
       <r>    6.1587    1.0000 </r>
       <r>    6.4742    1.0000 </r>
       <r>    8.5673   -0.0000 </r>
       <r>    8.8938   -0.0000 </r>
       <r>    9.0223   -0.0000 </r>
       <r>   10.1293   -0.0000 </r>
       <r>   13.6350    0.0000 </r>
       <r>   18.1532    0.0000 </r>
       <r>   19.8640    0.0000 </r>
       <r>   22.7704    0.0000 </r>
       <r>   25.2543    0.0000 </r>
       <r>   26.1266    0.0000 </r>
       <r>   31.6353    0.0000 </r>
       <r>   34.2285    0.0000 </r>
       <r>   35.7230    0.0000 </r>
       <r>   39.2675    0.0000 </r>
       <r>   40.7299    0.0000 </r>
       <r>   42.0859    0.0000 </r>
       <r>   45.9470    0.0000 </r>
       <r>   48.1930    0.0000 </r>
       <r>   54.1595    0.0000 </r>
       <r>   54.3302    0.0000 </r>
       <r>   57.8277    0.0000 </r>
       <r>   58.4226    0.0000 </r>
       <r>   59.8564    0.0000 </r>
       <r>   61.4833    0.0000 </r>
       <r>   61.5900    0.0000 </r>
       <r>   61.7352    0.0000 </r>
       <r>   63.7236    0.0000 </r>
       <r>   64.7380    0.0000 </r>
       <r>   65.8794    0.0000 </r>
       <r>   66.4468    0.0000 </r>
       <r>   67.8957    0.0000 </r>
       <r>   68.6149    0.0000 </r>
       <r>   68.8196    0.0000 </r>
      </set>
      <set comment="kpoint 23">
       <r>   -0.5284    1.0000 </r>
       <r>    2.9934    1.0000 </r>
       <r>    5.0927    1.0000 </r>
       <r>    5.1184    1.0000 </r>
       <r>    5.8921    1.0000 </r>
       <r>    5.9665    1.0000 </r>
       <r>    6.5242    1.0000 </r>
       <r>    6.7389    1.0000 </r>
       <r>    6.9303    1.0000 </r>
       <r>    7.1613    1.0014 </r>
       <r>    8.5187   -0.0000 </r>
       <r>   10.8070   -0.0000 </r>
       <r>   16.3217    0.0000 </r>
       <r>   28.4080    0.0000 </r>
       <r>   29.8716    0.0000 </r>
       <r>   32.3301    0.0000 </r>
       <r>   33.4525    0.0000 </r>
       <r>   35.6192    0.0000 </r>
       <r>   36.1886    0.0000 </r>
       <r>   36.9426    0.0000 </r>
       <r>   39.4781    0.0000 </r>
       <r>   43.1549    0.0000 </r>
       <r>   43.3233    0.0000 </r>
       <r>   44.0106    0.0000 </r>
       <r>   44.4703    0.0000 </r>
       <r>   45.7156    0.0000 </r>
       <r>   46.1556    0.0000 </r>
       <r>   51.2608    0.0000 </r>
       <r>   53.3514    0.0000 </r>
       <r>   54.4109    0.0000 </r>
       <r>   54.6843    0.0000 </r>
       <r>   57.7430    0.0000 </r>
       <r>   57.8895    0.0000 </r>
       <r>   60.9739    0.0000 </r>
       <r>   61.7084    0.0000 </r>
       <r>   62.3851    0.0000 </r>
       <r>   63.3592    0.0000 </r>
       <r>   66.9683    0.0000 </r>
       <r>   67.6616    0.0000 </r>
       <r>   68.4469    0.0000 </r>
      </set>
      <set comment="kpoint 24">
       <r>    0.6552    1.0000 </r>
       <r>    3.5774    1.0000 </r>
       <r>    4.2474    1.0000 </r>
       <r>    4.7830    1.0000 </r>
       <r>    5.6030    1.0000 </r>
       <r>    6.1049    1.0000 </r>
       <r>    6.6228    1.0000 </r>
       <r>    6.8070    1.0000 </r>
       <r>    7.3810    1.0332 </r>
       <r>    7.6432    0.5392 </r>
       <r>    8.5271   -0.0000 </r>
       <r>   12.5062   -0.0000 </r>
       <r>   16.7137    0.0000 </r>
       <r>   24.7613    0.0000 </r>
       <r>   27.4304    0.0000 </r>
       <r>   30.0736    0.0000 </r>
       <r>   32.2113    0.0000 </r>
       <r>   33.5989    0.0000 </r>
       <r>   35.8542    0.0000 </r>
       <r>   36.8207    0.0000 </r>
       <r>   38.3516    0.0000 </r>
       <r>   41.9955    0.0000 </r>
       <r>   43.3512    0.0000 </r>
       <r>   44.3802    0.0000 </r>
       <r>   46.7996    0.0000 </r>
       <r>   47.6750    0.0000 </r>
       <r>   49.9079    0.0000 </r>
       <r>   53.4382    0.0000 </r>
       <r>   55.4757    0.0000 </r>
       <r>   56.8229    0.0000 </r>
       <r>   57.3359    0.0000 </r>
       <r>   58.8150    0.0000 </r>
       <r>   59.0053    0.0000 </r>
       <r>   60.7235    0.0000 </r>
       <r>   60.9086    0.0000 </r>
       <r>   62.0279    0.0000 </r>
       <r>   63.9844    0.0000 </r>
       <r>   67.7607    0.0000 </r>
       <r>   67.7785    0.0000 </r>
       <r>   68.5475    0.0000 </r>
      </set>
      <set comment="kpoint 25">
       <r>    1.9896    1.0000 </r>
       <r>    3.4837    1.0000 </r>
       <r>    3.6563    1.0000 </r>
       <r>    4.8240    1.0000 </r>
       <r>    5.6163    1.0000 </r>
       <r>    6.0056    1.0000 </r>
       <r>    6.4427    1.0000 </r>
       <r>    7.3049    1.0169 </r>
       <r>    8.1803   -0.0006 </r>
       <r>    8.4169   -0.0000 </r>
       <r>    8.7406   -0.0000 </r>
       <r>   14.2193    0.0000 </r>
       <r>   17.4469    0.0000 </r>
       <r>   21.0602    0.0000 </r>
       <r>   25.6464    0.0000 </r>
       <r>   26.7142    0.0000 </r>
       <r>   30.2303    0.0000 </r>
       <r>   31.2932    0.0000 </r>
       <r>   35.9776    0.0000 </r>
       <r>   36.5419    0.0000 </r>
       <r>   37.8305    0.0000 </r>
       <r>   41.5434    0.0000 </r>
       <r>   43.3516    0.0000 </r>
       <r>   45.6720    0.0000 </r>
       <r>   48.7029    0.0000 </r>
       <r>   50.5556    0.0000 </r>
       <r>   52.6890    0.0000 </r>
       <r>   54.5862    0.0000 </r>
       <r>   55.6684    0.0000 </r>
       <r>   57.0947    0.0000 </r>
       <r>   59.2405    0.0000 </r>
       <r>   60.4041    0.0000 </r>
       <r>   60.5477    0.0000 </r>
       <r>   61.5255    0.0000 </r>
       <r>   62.8875    0.0000 </r>
       <r>   64.0210    0.0000 </r>
       <r>   66.3749    0.0000 </r>
       <r>   67.3683    0.0000 </r>
       <r>   67.7769    0.0000 </r>
       <r>   68.5250    0.0000 </r>
      </set>
      <set comment="kpoint 26">
       <r>    2.7081    1.0000 </r>
       <r>    3.0909    1.0000 </r>
       <r>    3.4566    1.0000 </r>
       <r>    4.9504    1.0000 </r>
       <r>    5.9292    1.0000 </r>
       <r>    6.0729    1.0000 </r>
       <r>    6.2516    1.0000 </r>
       <r>    8.2470   -0.0001 </r>
       <r>    8.4602   -0.0000 </r>
       <r>    8.7578   -0.0000 </r>
       <r>    9.9392   -0.0000 </r>
       <r>   14.8118    0.0000 </r>
       <r>   17.7883    0.0000 </r>
       <r>   19.9226    0.0000 </r>
       <r>   23.6120    0.0000 </r>
       <r>   24.5023    0.0000 </r>
       <r>   27.0731    0.0000 </r>
       <r>   30.3507    0.0000 </r>
       <r>   34.9588    0.0000 </r>
       <r>   36.3090    0.0000 </r>
       <r>   38.8292    0.0000 </r>
       <r>   41.4594    0.0000 </r>
       <r>   44.0899    0.0000 </r>
       <r>   45.7230    0.0000 </r>
       <r>   49.5403    0.0000 </r>
       <r>   51.7416    0.0000 </r>
       <r>   53.7219    0.0000 </r>
       <r>   55.8186    0.0000 </r>
       <r>   57.5865    0.0000 </r>
       <r>   58.7780    0.0000 </r>
       <r>   59.5934    0.0000 </r>
       <r>   61.0597    0.0000 </r>
       <r>   61.8292    0.0000 </r>
       <r>   63.8461    0.0000 </r>
       <r>   65.1824    0.0000 </r>
       <r>   65.8705    0.0000 </r>
       <r>   66.0476    0.0000 </r>
       <r>   67.4965    0.0000 </r>
       <r>   68.3440    0.0000 </r>
       <r>   70.0174    0.0000 </r>
      </set>
      <set comment="kpoint 27">
       <r>    2.8011    1.0000 </r>
       <r>    2.9096    1.0000 </r>
       <r>    3.4542    1.0000 </r>
       <r>    5.0354    1.0000 </r>
       <r>    5.8869    1.0000 </r>
       <r>    6.2845    1.0000 </r>
       <r>    6.3159    1.0000 </r>
       <r>    8.4513   -0.0000 </r>
       <r>    8.8070   -0.0000 </r>
       <r>    8.8406   -0.0000 </r>
       <r>   11.1678   -0.0000 </r>
       <r>   13.4381    0.0000 </r>
       <r>   18.9920    0.0000 </r>
       <r>   19.8209    0.0000 </r>
       <r>   22.8240    0.0000 </r>
       <r>   23.6092    0.0000 </r>
       <r>   25.4049    0.0000 </r>
       <r>   30.0219    0.0000 </r>
       <r>   34.5331    0.0000 </r>
       <r>   36.1687    0.0000 </r>
       <r>   39.3270    0.0000 </r>
       <r>   41.6869    0.0000 </r>
       <r>   43.7791    0.0000 </r>
       <r>   47.1090    0.0000 </r>
       <r>   47.7079    0.0000 </r>
       <r>   52.4499    0.0000 </r>
       <r>   54.3729    0.0000 </r>
       <r>   56.8905    0.0000 </r>
       <r>   58.6968    0.0000 </r>
       <r>   58.8898    0.0000 </r>
       <r>   61.4360    0.0000 </r>
       <r>   61.6901    0.0000 </r>
       <r>   62.1739    0.0000 </r>
       <r>   62.8890    0.0000 </r>
       <r>   64.4327    0.0000 </r>
       <r>   67.3777    0.0000 </r>
       <r>   67.4669    0.0000 </r>
       <r>   68.2849    0.0000 </r>
       <r>   68.4376    0.0000 </r>
       <r>   70.3508    0.0000 </r>
      </set>
      <set comment="kpoint 28">
       <r>    1.9191    1.0000 </r>
       <r>    3.7467    1.0000 </r>
       <r>    4.0675    1.0000 </r>
       <r>    4.2978    1.0000 </r>
       <r>    5.6983    1.0000 </r>
       <r>    5.7155    1.0000 </r>
       <r>    6.5702    1.0000 </r>
       <r>    6.8138    1.0000 </r>
       <r>    8.1736   -0.0007 </r>
       <r>    8.3284   -0.0000 </r>
       <r>    8.8007   -0.0000 </r>
       <r>   14.0929    0.0000 </r>
       <r>   17.4952    0.0000 </r>
       <r>   22.7272    0.0000 </r>
       <r>   23.6017    0.0000 </r>
       <r>   28.1797    0.0000 </r>
       <r>   29.6699    0.0000 </r>
       <r>   32.6987    0.0000 </r>
       <r>   33.3741    0.0000 </r>
       <r>   36.9469    0.0000 </r>
       <r>   39.9310    0.0000 </r>
       <r>   43.6182    0.0000 </r>
       <r>   44.3767    0.0000 </r>
       <r>   45.9142    0.0000 </r>
       <r>   46.1316    0.0000 </r>
       <r>   49.5642    0.0000 </r>
       <r>   50.1707    0.0000 </r>
       <r>   54.7345    0.0000 </r>
       <r>   55.5913    0.0000 </r>
       <r>   56.8395    0.0000 </r>
       <r>   59.1902    0.0000 </r>
       <r>   60.6023    0.0000 </r>
       <r>   60.6997    0.0000 </r>
       <r>   62.5319    0.0000 </r>
       <r>   62.7212    0.0000 </r>
       <r>   64.2278    0.0000 </r>
       <r>   64.5527    0.0000 </r>
       <r>   67.6123    0.0000 </r>
       <r>   67.7504    0.0000 </r>
       <r>   68.6912    0.0000 </r>
      </set>
      <set comment="kpoint 29">
       <r>    3.0482    1.0000 </r>
       <r>    3.4820    1.0000 </r>
       <r>    3.7590    1.0000 </r>
       <r>    4.5031    1.0000 </r>
       <r>    5.5194    1.0000 </r>
       <r>    5.9683    1.0000 </r>
       <r>    6.2131    1.0000 </r>
       <r>    7.3689    1.0311 </r>
       <r>    8.2680   -0.0001 </r>
       <r>    8.7127   -0.0000 </r>
       <r>   10.1213   -0.0000 </r>
       <r>   15.6678    0.0000 </r>
       <r>   18.4229    0.0000 </r>
       <r>   20.0047    0.0000 </r>
       <r>   21.9237    0.0000 </r>
       <r>   25.5398    0.0000 </r>
       <r>   28.0180    0.0000 </r>
       <r>   29.2879    0.0000 </r>
       <r>   32.1492    0.0000 </r>
       <r>   38.5370    0.0000 </r>
       <r>   40.6717    0.0000 </r>
       <r>   43.7972    0.0000 </r>
       <r>   45.5983    0.0000 </r>
       <r>   47.0227    0.0000 </r>
       <r>   48.1900    0.0000 </r>
       <r>   49.2283    0.0000 </r>
       <r>   52.3746    0.0000 </r>
       <r>   53.2382    0.0000 </r>
       <r>   55.7815    0.0000 </r>
       <r>   58.0225    0.0000 </r>
       <r>   59.2862    0.0000 </r>
       <r>   61.0851    0.0000 </r>
       <r>   62.1578    0.0000 </r>
       <r>   63.4836    0.0000 </r>
       <r>   65.3054    0.0000 </r>
       <r>   65.9226    0.0000 </r>
       <r>   66.8120    0.0000 </r>
       <r>   68.1571    0.0000 </r>
       <r>   68.9601    0.0000 </r>
       <r>   70.1256    0.0000 </r>
      </set>
      <set comment="kpoint 30">
       <r>    3.1533    1.0000 </r>
       <r>    3.4492    1.0000 </r>
       <r>    3.7505    1.0000 </r>
       <r>    4.8108    1.0000 </r>
       <r>    5.5803    1.0000 </r>
       <r>    5.8077    1.0000 </r>
       <r>    6.3714    1.0000 </r>
       <r>    8.0950   -0.0038 </r>
       <r>    8.2151   -0.0003 </r>
       <r>    8.7275   -0.0000 </r>
       <r>   11.7905   -0.0000 </r>
       <r>   14.8686    0.0000 </r>
       <r>   18.9642    0.0000 </r>
       <r>   20.6627    0.0000 </r>
       <r>   20.9179    0.0000 </r>
       <r>   23.4048    0.0000 </r>
       <r>   26.2672    0.0000 </r>
       <r>   27.3770    0.0000 </r>
       <r>   31.5314    0.0000 </r>
       <r>   39.5554    0.0000 </r>
       <r>   41.2249    0.0000 </r>
       <r>   42.9537    0.0000 </r>
       <r>   46.4590    0.0000 </r>
       <r>   47.2054    0.0000 </r>
       <r>   49.7272    0.0000 </r>
       <r>   50.1992    0.0000 </r>
       <r>   52.5284    0.0000 </r>
       <r>   54.2694    0.0000 </r>
       <r>   57.1360    0.0000 </r>
       <r>   57.7229    0.0000 </r>
       <r>   58.6041    0.0000 </r>
       <r>   61.3723    0.0000 </r>
       <r>   61.6790    0.0000 </r>
       <r>   62.7430    0.0000 </r>
       <r>   66.6088    0.0000 </r>
       <r>   66.7681    0.0000 </r>
       <r>   68.3911    0.0000 </r>
       <r>   68.5921    0.0000 </r>
       <r>   69.2092    0.0000 </r>
       <r>   69.9669    0.0000 </r>
      </set>
      <set comment="kpoint 31">
       <r>    3.4194    1.0000 </r>
       <r>    3.8522    1.0000 </r>
       <r>    4.1432    1.0000 </r>
       <r>    4.2505    1.0000 </r>
       <r>    5.3853    1.0000 </r>
       <r>    5.6996    1.0000 </r>
       <r>    6.3534    1.0000 </r>
       <r>    7.6632    0.4547 </r>
       <r>    8.0937   -0.0039 </r>
       <r>    8.7021   -0.0000 </r>
       <r>   11.9570   -0.0000 </r>
       <r>   16.7805    0.0000 </r>
       <r>   17.7586    0.0000 </r>
       <r>   19.4864    0.0000 </r>
       <r>   21.3973    0.0000 </r>
       <r>   24.8731    0.0000 </r>
       <r>   24.9798    0.0000 </r>
       <r>   28.1330    0.0000 </r>
       <r>   28.9841    0.0000 </r>
       <r>   40.3248    0.0000 </r>
       <r>   43.2765    0.0000 </r>
       <r>   45.6290    0.0000 </r>
       <r>   46.0346    0.0000 </r>
       <r>   48.0216    0.0000 </r>
       <r>   48.2810    0.0000 </r>
       <r>   49.9345    0.0000 </r>
       <r>   51.9927    0.0000 </r>
       <r>   53.7285    0.0000 </r>
       <r>   54.1056    0.0000 </r>
       <r>   57.5386    0.0000 </r>
       <r>   58.5676    0.0000 </r>
       <r>   60.8603    0.0000 </r>
       <r>   61.5065    0.0000 </r>
       <r>   62.8384    0.0000 </r>
       <r>   66.4353    0.0000 </r>
       <r>   67.3244    0.0000 </r>
       <r>   67.4492    0.0000 </r>
       <r>   69.2850    0.0000 </r>
       <r>   69.9116    0.0000 </r>
       <r>   70.6072    0.0000 </r>
      </set>
      <set comment="kpoint 32">
       <r>    3.4482    1.0000 </r>
       <r>    3.9996    1.0000 </r>
       <r>    4.0808    1.0000 </r>
       <r>    4.5158    1.0000 </r>
       <r>    5.3704    1.0000 </r>
       <r>    5.4728    1.0000 </r>
       <r>    6.5047    1.0000 </r>
       <r>    8.0259   -0.0120 </r>
       <r>    8.0519   -0.0081 </r>
       <r>    8.3783   -0.0000 </r>
       <r>   13.7931    0.0000 </r>
       <r>   15.1048    0.0000 </r>
       <r>   17.3088    0.0000 </r>
       <r>   21.2014    0.0000 </r>
       <r>   21.3556    0.0000 </r>
       <r>   23.5911    0.0000 </r>
       <r>   24.9118    0.0000 </r>
       <r>   26.3195    0.0000 </r>
       <r>   28.3940    0.0000 </r>
       <r>   41.2433    0.0000 </r>
       <r>   43.7744    0.0000 </r>
       <r>   45.5382    0.0000 </r>
       <r>   46.4170    0.0000 </r>
       <r>   48.4883    0.0000 </r>
       <r>   49.3278    0.0000 </r>
       <r>   50.8215    0.0000 </r>
       <r>   52.5706    0.0000 </r>
       <r>   53.2042    0.0000 </r>
       <r>   53.8389    0.0000 </r>
       <r>   56.5308    0.0000 </r>
       <r>   57.9377    0.0000 </r>
       <r>   59.0168    0.0000 </r>
       <r>   61.8191    0.0000 </r>
       <r>   62.0843    0.0000 </r>
       <r>   66.5951    0.0000 </r>
       <r>   67.6141    0.0000 </r>
       <r>   69.1217    0.0000 </r>
       <r>   69.4782    0.0000 </r>
       <r>   70.0383    0.0000 </r>
       <r>   70.3313    0.0000 </r>
      </set>
      <set comment="kpoint 33">
       <r>   -1.2762    1.0000 </r>
       <r>    2.1786    1.0000 </r>
       <r>    5.2328    1.0000 </r>
       <r>    5.8931    1.0000 </r>
       <r>    5.8931    1.0000 </r>
       <r>    6.2080    1.0000 </r>
       <r>    6.2081    1.0000 </r>
       <r>    6.2354    1.0000 </r>
       <r>    7.4246    1.0342 </r>
       <r>    7.4247    1.0342 </r>
       <r>    8.4369   -0.0000 </r>
       <r>    8.4370   -0.0000 </r>
       <r>   17.1833    0.0000 </r>
[...]
       <r>   23.1304    0.0000 </r>
       <r>   23.8994    0.0000 </r>
       <r>   28.5241    0.0000 </r>
       <r>   29.6807    0.0000 </r>
       <r>   34.3303    0.0000 </r>
       <r>   35.4162    0.0000 </r>
       <r>   37.6423    0.0000 </r>
       <r>   39.2019    0.0000 </r>
       <r>   44.2056    0.0000 </r>
       <r>   44.5941    0.0000 </r>
       <r>   53.9386    0.0000 </r>
       <r>   54.5410    0.0000 </r>
       <r>   55.1156    0.0000 </r>
       <r>   56.7905    0.0000 </r>
       <r>   58.5508    0.0000 </r>
       <r>   59.0791    0.0000 </r>
       <r>   59.8294    0.0000 </r>
       <r>   61.0359    0.0000 </r>
       <r>   63.1625    0.0000 </r>
       <r>   63.2431    0.0000 </r>
       <r>   65.2204    0.0000 </r>
       <r>   65.5754    0.0000 </r>
       <r>   67.0743    0.0000 </r>
       <r>   67.2815    0.0000 </r>
       <r>   68.1640    0.0000 </r>
       <r>   69.0082    0.0000 </r>
      </set>
      <set comment="kpoint 95">
       <r>    3.4578    1.0000 </r>
       <r>    3.5208    1.0000 </r>
       <r>    4.5244    1.0000 </r>
       <r>    4.7600    1.0000 </r>
       <r>    5.1782    1.0000 </r>
       <r>    5.4094    1.0000 </r>
       <r>    6.6965    1.0000 </r>
       <r>    6.9140    1.0000 </r>
       <r>    8.5427   -0.0000 </r>
       <r>    8.7400   -0.0000 </r>
       <r>   12.9157   -0.0000 </r>
       <r>   13.4598    0.0000 </r>
       <r>   19.3475    0.0000 </r>
       <r>   19.8004    0.0000 </r>
       <r>   21.3134    0.0000 </r>
       <r>   21.7321    0.0000 </r>
       <r>   28.7106    0.0000 </r>
       <r>   30.3853    0.0000 </r>
       <r>   34.3604    0.0000 </r>
       <r>   35.8258    0.0000 </r>
       <r>   37.4328    0.0000 </r>
       <r>   38.6014    0.0000 </r>
       <r>   46.3152    0.0000 </r>
       <r>   46.7366    0.0000 </r>
       <r>   50.9337    0.0000 </r>
       <r>   51.0187    0.0000 </r>
       <r>   57.6415    0.0000 </r>
       <r>   58.2265    0.0000 </r>
       <r>   58.6777    0.0000 </r>
       <r>   59.5970    0.0000 </r>
       <r>   61.1899    0.0000 </r>
       <r>   61.2477    0.0000 </r>
       <r>   61.5043    0.0000 </r>
       <r>   61.5428    0.0000 </r>
       <r>   64.6469    0.0000 </r>
       <r>   65.0655    0.0000 </r>
       <r>   66.6882    0.0000 </r>
       <r>   67.0020    0.0000 </r>
       <r>   67.5948    0.0000 </r>
       <r>   68.0910    0.0000 </r>
      </set>
      <set comment="kpoint 96">
       <r>    3.6738    1.0000 </r>
       <r>    3.8153    1.0000 </r>
       <r>    4.4372    1.0000 </r>
       <r>    4.5237    1.0000 </r>
       <r>    5.2045    1.0000 </r>
       <r>    5.3353    1.0000 </r>
       <r>    6.7652    1.0000 </r>
       <r>    6.9299    1.0000 </r>
       <r>    8.5156   -0.0000 </r>
       <r>    8.5882   -0.0000 </r>
       <r>   14.7908    0.0000 </r>
       <r>   14.9341    0.0000 </r>
       <r>   17.6444    0.0000 </r>
       <r>   18.0073    0.0000 </r>
       <r>   20.6645    0.0000 </r>
       <r>   21.1109    0.0000 </r>
       <r>   30.4024    0.0000 </r>
       <r>   31.2504    0.0000 </r>
       <r>   33.4991    0.0000 </r>
       <r>   33.7554    0.0000 </r>
       <r>   37.1933    0.0000 </r>
       <r>   38.0507    0.0000 </r>
       <r>   47.5889    0.0000 </r>
       <r>   48.2371    0.0000 </r>
       <r>   52.3316    0.0000 </r>
       <r>   52.7572    0.0000 </r>
       <r>   55.3780    0.0000 </r>
       <r>   55.7212    0.0000 </r>
       <r>   58.9776    0.0000 </r>
       <r>   60.1201    0.0000 </r>
       <r>   61.2100    0.0000 </r>
       <r>   61.6687    0.0000 </r>
       <r>   62.5249    0.0000 </r>
       <r>   62.7200    0.0000 </r>
       <r>   63.1840    0.0000 </r>
       <r>   64.6067    0.0000 </r>
       <r>   66.2404    0.0000 </r>
       <r>   67.6619    0.0000 </r>
       <r>   69.4337    0.0000 </r>
       <r>   69.6317    0.0000 </r>
      </set>
     </set>
    </set>
   </array>
  </eigenvalues>
  <separator name="orbital magnetization" >
   <v name="MAGDIPOLOUT">      0.00000000      0.00000000      0.00000000</v>
  </separator>
  <dos>
   <i name="efermi">      7.65248454 </i>
   <total>
    <array>
     <dimension dim="1">gridpoints</dimension>
     <dimension dim="2">spin</dimension>
     <field>energy</field>
     <field>total</field>
     <field>integrated</field>
     <set>
      <set comment="spin 1">
       <r>    -5.2622     0.0000     0.0000 </r>
       <r>    -4.9947     0.0000     0.0000 </r>
       <r>    -4.7272     0.0000     0.0000 </r>
       <r>    -4.4597     0.0000     0.0000 </r>
       <r>    -4.1922     0.0000     0.0000 </r>
       <r>    -3.9247     0.0000     0.0000 </r>
       <r>    -3.6571     0.0000     0.0000 </r>
       <r>    -3.3896    -0.0000    -0.0000 </r>
       <r>    -3.1221    -0.0000    -0.0000 </r>
       <r>    -2.8546    -0.0000    -0.0000 </r>
       <r>    -2.5871    -0.0000    -0.0000 </r>
       <r>    -2.3196    -0.0000    -0.0000 </r>
       <r>    -2.0521    -0.0000    -0.0000 </r>
       <r>    -1.7845    -0.0004    -0.0001 </r>
       <r>    -1.5170     0.0085     0.0022 </r>
       <r>    -1.2495     0.0504     0.0156 </r>
       <r>    -0.9820     0.0960     0.0413 </r>
       <r>    -0.7145     0.0571     0.0566 </r>
       <r>    -0.4470     0.1428     0.0948 </r>
       <r>    -0.1795     0.1699     0.1402 </r>
       <r>     0.0881     0.1843     0.1895 </r>
       <r>     0.3556     0.0843     0.2121 </r>
       <r>     0.6231     0.2187     0.2706 </r>
       <r>     0.8906     0.3087     0.3532 </r>
       <r>     1.1581     0.2682     0.4249 </r>
       <r>     1.4256     0.3171     0.5098 </r>
       <r>     1.6931     0.2056     0.5648 </r>
       <r>     1.9607     0.4436     0.6834 </r>
       <r>     2.2282     0.8575     0.9128 </r>
       <r>     2.4957     1.3782     1.2815 </r>
       <r>     2.7632     1.6718     1.7288 </r>
       <r>     3.0307     2.5470     2.4101 </r>
       <r>     3.2982     2.2940     3.0238 </r>
       <r>     3.5657     2.8510     3.7865 </r>
       <r>     3.8333     2.0526     4.3356 </r>
       <r>     4.1008     2.6427     5.0425 </r>
       <r>     4.3683     2.9608     5.8346 </r>
       <r>     4.6358     3.0071     6.6390 </r>
       <r>     4.9033     2.5437     7.3195 </r>
       <r>     5.1708     1.9994     7.8544 </r>
       <r>     5.4383     2.8021     8.6040 </r>
       <r>     5.7059     3.8167     9.6250 </r>
       <r>     5.9734     3.4873    10.5579 </r>
       <r>     6.2409     3.7599    11.5637 </r>
       <r>     6.5084     3.5282    12.5076 </r>
       <r>     6.7759     3.5955    13.4694 </r>
       <r>     7.0434     2.8114    14.2215 </r>
       <r>     7.3109     2.8585    14.9862 </r>
       <r>     7.5785     3.0712    15.8078 </r>
       <r>     7.8460     2.2957    16.4219 </r>
       <r>     8.1135     2.9596    17.2136 </r>
       <r>     8.3810     4.4980    18.4169 </r>
       <r>     8.6485     4.6217    19.6533 </r>
       <r>     8.9160     4.2976    20.8030 </r>
       <r>     9.1835     1.6197    21.2363 </r>
       <r>     9.4511     0.0802    21.2577 </r>
       <r>     9.7186     0.4402    21.3755 </r>
       <r>     9.9861     0.8961    21.6152 </r>
       <r>    10.2536     0.7062    21.8041 </r>
       <r>    10.5211     0.4607    21.9274 </r>
       <r>    10.7886     0.6157    22.0921 </r>
       <r>    11.0561     0.4175    22.2038 </r>
       <r>    11.3236     0.3182    22.2889 </r>
       <r>    11.5912     0.2930    22.3673 </r>
       <r>    11.8587     0.6993    22.5544 </r>
       <r>    12.1262     0.6332    22.7237 </r>
       <r>    12.3937     0.3500    22.8174 </r>
       <r>    12.6612     0.3284    22.9052 </r>
       <r>    12.9287     0.4422    23.0235 </r>
       <r>    13.1962     0.4989    23.1570 </r>
       <r>    13.4638     0.2690    23.2289 </r>
       <r>    13.7313     0.2827    23.3046 </r>
       <r>    13.9988     0.3120    23.3880 </r>
       <r>    14.2663     0.4003    23.4951 </r>
       <r>    14.5338     0.3093    23.5779 </r>
       <r>    14.8013     0.2931    23.6563 </r>
       <r>    15.0688     0.5516    23.8038 </r>
       <r>    15.3364     0.2990    23.8838 </r>
       <r>    15.6039     0.0622    23.9005 </r>
       <r>    15.8714     0.2189    23.9590 </r>
       <r>    16.1389     0.2301    24.0206 </r>
       <r>    16.4064     0.2368    24.0839 </r>
       <r>    16.6739     0.1273    24.1180 </r>
       <r>    16.9414     0.2418    24.1827 </r>
       <r>    17.2090     0.1169    24.2139 </r>
       <r>    17.4765     0.5410    24.3587 </r>
       <r>    17.7440     0.4723    24.4850 </r>
       <r>    18.0115     0.6367    24.6553 </r>
       <r>    18.2790     0.9376    24.9062 </r>
       <r>    18.5465     0.7867    25.1166 </r>
       <r>    18.8140     0.5308    25.2586 </r>
       <r>    19.0816     0.5022    25.3929 </r>
       <r>    19.3491     0.7375    25.5902 </r>
       <r>    19.6166     0.5196    25.7292 </r>
       <r>    19.8841     0.8805    25.9648 </r>
       <r>    20.1516     0.7581    26.1676 </r>
       <r>    20.4191     0.4545    26.2892 </r>
       <r>    20.6866     0.8458    26.5154 </r>
       <r>    20.9542     0.6509    26.6896 </r>
       <r>    21.2217     0.7565    26.8920 </r>
       <r>    21.4892     0.5918    27.0503 </r>
       <r>    21.7567     0.5319    27.1926 </r>
       <r>    22.0242     0.8403    27.4174 </r>
       <r>    22.2917     0.4537    27.5388 </r>
       <r>    22.5592     0.4958    27.6714 </r>
       <r>    22.8268     0.5969    27.8310 </r>
       <r>    23.0943     0.5300    27.9728 </r>
       <r>    23.3618     0.6366    28.1431 </r>
       <r>    23.6293     0.5586    28.2926 </r>
       <r>    23.8968     0.7822    28.5018 </r>
       <r>    24.1643     0.5549    28.6503 </r>
       <r>    24.4318     0.5853    28.8068 </r>
       <r>    24.6994     0.7945    29.0194 </r>
       <r>    24.9669     1.0465    29.2993 </r>
       <r>    25.2344     0.8156    29.5175 </r>
       <r>    25.5019     0.8700    29.7503 </r>
       <r>    25.7694     1.0347    30.0270 </r>
       <r>    26.0369     0.5297    30.1687 </r>
       <r>    26.3044     0.7973    30.3820 </r>
       <r>    26.5720     0.8561    30.6110 </r>
       <r>    26.8395     0.6561    30.7866 </r>
       <r>    27.1070     1.1324    31.0895 </r>
       <r>    27.3745     1.3521    31.4512 </r>
       <r>    27.6420     0.8341    31.6744 </r>
       <r>    27.9095     0.5425    31.8195 </r>
       <r>    28.1770     1.0589    32.1028 </r>
       <r>    28.4446     0.6682    32.2815 </r>
       <r>    28.7121     1.1180    32.5806 </r>
       <r>    28.9796     1.0588    32.8639 </r>
       <r>    29.2471     0.4826    32.9930 </r>
       <r>    29.5146     0.8986    33.2333 </r>
       <r>    29.7821     0.8767    33.4679 </r>
       <r>    30.0496     0.7814    33.6769 </r>
       <r>    30.3172     1.2381    34.0081 </r>
       <r>    30.5847     0.8401    34.2329 </r>
       <r>    30.8522     0.1857    34.2825 </r>
       <r>    31.1197     0.5834    34.4386 </r>
       <r>    31.3872     0.9309    34.6876 </r>
       <r>    31.6547     0.8443    34.9135 </r>
       <r>    31.9222     0.5759    35.0676 </r>
       <r>    32.1898     0.6551    35.2428 </r>
       <r>    32.4573     0.8246    35.4634 </r>
       <r>    32.7248     0.7761    35.6710 </r>
       <r>    32.9923     0.6156    35.8357 </r>
       <r>    33.2598     0.6778    36.0170 </r>
       <r>    33.5273     0.4276    36.1314 </r>
       <r>    33.7948     0.8383    36.3557 </r>
       <r>    34.0624     0.8886    36.5934 </r>
       <r>    34.3299     0.5446    36.7391 </r>
       <r>    34.5974     1.0458    37.0188 </r>
       <r>    34.8649     0.7412    37.2171 </r>
       <r>    35.1324     0.6186    37.3826 </r>
       <r>    35.3999     0.8502    37.6100 </r>
       <r>    35.6674     0.8481    37.8369 </r>
       <r>    35.9350     0.8868    38.0742 </r>
       <r>    36.2025     1.0446    38.3536 </r>
       <r>    36.4700     0.6262    38.5211 </r>
       <r>    36.7375     1.0260    38.7956 </r>
       <r>    37.0050     1.1432    39.1014 </r>
       <r>    37.2725     0.6243    39.2684 </r>
       <r>    37.5400     0.8347    39.4917 </r>
       <r>    37.8076     1.2694    39.8313 </r>
       <r>    38.0751     0.9993    40.0986 </r>
       <r>    38.3426     0.9608    40.3556 </r>
       <r>    38.6101     0.7473    40.5555 </r>
       <r>    38.8776     0.8890    40.7934 </r>
       <r>    39.1451     0.6525    40.9679 </r>
       <r>    39.4126     0.8054    41.1834 </r>
       <r>    39.6802     0.6835    41.3662 </r>
       <r>    39.9477     0.6003    41.5268 </r>
       <r>    40.2152     0.8302    41.7489 </r>
       <r>    40.4827     0.9639    42.0068 </r>
       <r>    40.7502     0.6877    42.1907 </r>
       <r>    41.0177     0.7358    42.3876 </r>
       <r>    41.2852     0.7647    42.5922 </r>
       <r>    41.5528     1.3101    42.9426 </r>
       <r>    41.8203     0.8486    43.1697 </r>
       <r>    42.0878     0.8560    43.3987 </r>
       <r>    42.3553     0.8667    43.6305 </r>
       <r>    42.6228     0.7064    43.8195 </r>
       <r>    42.8903     0.5288    43.9609 </r>
       <r>    43.1578     0.5442    44.1065 </r>
       <r>    43.4254     0.9744    44.3672 </r>
       <r>    43.6929     1.1042    44.6626 </r>
       <r>    43.9604     1.0622    44.9467 </r>
       <r>    44.2279     1.2538    45.2821 </r>
       <r>    44.4954     1.0256    45.5565 </r>
       <r>    44.7629     0.8970    45.7965 </r>
       <r>    45.0304     0.8416    46.0216 </r>
       <r>    45.2979     0.9211    46.2680 </r>
       <r>    45.5655     0.8200    46.4874 </r>
       <r>    45.8330     1.4000    46.8619 </r>
       <r>    46.1005     1.3031    47.2105 </r>
       <r>    46.3680     1.0643    47.4952 </r>
       <r>    46.6355     0.9020    47.7365 </r>
       <r>    46.9030     1.0950    48.0294 </r>
       <r>    47.1705     1.4228    48.4100 </r>
       <r>    47.4381     0.6451    48.5826 </r>
       <r>    47.7056     0.9722    48.8427 </r>
       <r>    47.9731     0.5780    48.9973 </r>
       <r>    48.2406     0.9848    49.2608 </r>
       <r>    48.5081     0.5833    49.4168 </r>
       <r>    48.7756     0.7237    49.6104 </r>
       <r>    49.0431     0.5528    49.7583 </r>
       <r>    49.3107     0.8651    49.9897 </r>
       <r>    49.5782     1.1194    50.2892 </r>
       <r>    49.8457     1.2729    50.6297 </r>
       <r>    50.1132     0.8971    50.8697 </r>
       <r>    50.3807     1.1437    51.1757 </r>
       <r>    50.6482     0.7886    51.3866 </r>
       <r>    50.9157     0.9626    51.6441 </r>
       <r>    51.1833     1.5618    52.0619 </r>
       <r>    51.4508     1.0143    52.3333 </r>
       <r>    51.7183     0.9077    52.5761 </r>
       <r>    51.9858     0.6627    52.7534 </r>
       <r>    52.2533     0.4380    52.8706 </r>
       <r>    52.5208     1.2375    53.2016 </r>
       <r>    52.7883     1.6973    53.6557 </r>
       <r>    53.0559     1.3102    54.0062 </r>
       <r>    53.3234     1.0807    54.2953 </r>
       <r>    53.5909     1.1917    54.6141 </r>
       <r>    53.8584     1.2130    54.9386 </r>
       <r>    54.1259     0.6281    55.1066 </r>
       <r>    54.3934     1.1486    55.4139 </r>
       <r>    54.6609     1.2830    55.7571 </r>
       <r>    54.9285     1.2070    56.0800 </r>
       <r>    55.1960     0.6740    56.2603 </r>
       <r>    55.4635     1.1241    56.5610 </r>
       <r>    55.7310     1.4413    56.9466 </r>
       <r>    55.9985     1.3931    57.3193 </r>
       <r>    56.2660     1.0428    57.5982 </r>
       <r>    56.5335     1.1151    57.8965 </r>
       <r>    56.8011     1.0397    58.1746 </r>
       <r>    57.0686     1.3175    58.5271 </r>
       <r>    57.3361     1.4538    58.9160 </r>
       <r>    57.6036     1.1927    59.2351 </r>
       <r>    57.8711     1.4678    59.6277 </r>
       <r>    58.1386     1.1556    59.9369 </r>
       <r>    58.4061     1.1900    60.2552 </r>
       <r>    58.6737     1.4356    60.6392 </r>
       <r>    58.9412     1.7952    61.1195 </r>
       <r>    59.2087     2.2029    61.7088 </r>
       <r>    59.4762     1.7760    62.1839 </r>
       <r>    59.7437     1.1775    62.4989 </r>
       <r>    60.0112     1.3355    62.8561 </r>
       <r>    60.2787     1.5827    63.2795 </r>
       <r>    60.5463     1.8385    63.7714 </r>
       <r>    60.8138     2.3422    64.3979 </r>
       <r>    61.0813     2.2078    64.9885 </r>
       <r>    61.3488     2.4735    65.6502 </r>
       <r>    61.6163     2.1155    66.2162 </r>
       <r>    61.8838     1.7441    66.6827 </r>
       <r>    62.1513     1.8774    67.1850 </r>
       <r>    62.4189     1.4591    67.5753 </r>
       <r>    62.6864     1.0422    67.8541 </r>
       <r>    62.9539     1.2759    68.1954 </r>
       <r>    63.2214     1.7752    68.6703 </r>
       <r>    63.4889     2.0223    69.2113 </r>
       <r>    63.7564     1.3588    69.5748 </r>
       <r>    64.0239     1.8427    70.0678 </r>
       <r>    64.2915     1.6681    70.5140 </r>
       <r>    64.5590     1.3695    70.8804 </r>
       <r>    64.8265     1.7851    71.3579 </r>
       <r>    65.0940     1.6382    71.7962 </r>
       <r>    65.3615     1.3173    72.1486 </r>
       <r>    65.6290     1.4690    72.5415 </r>
       <r>    65.8965     1.3350    72.8987 </r>
       <r>    66.1641     1.2697    73.2383 </r>
       <r>    66.4316     1.5177    73.6443 </r>
       <r>    66.6991     2.0800    74.2008 </r>
       <r>    66.9666     1.8539    74.6967 </r>
       <r>    67.2341     1.4213    75.0769 </r>
       <r>    67.5016     1.9155    75.5894 </r>
       <r>    67.7691     2.0817    76.1463 </r>
       <r>    68.0367     1.5809    76.5692 </r>
       <r>    68.3042     1.5779    76.9913 </r>
       <r>    68.5717     1.4726    77.3852 </r>
       <r>    68.8392     1.2718    77.7255 </r>
       <r>    69.1067     1.2785    78.0675 </r>
       <r>    69.3742     1.6083    78.4977 </r>
       <r>    69.6417     1.2559    78.8337 </r>
       <r>    69.9093     1.4119    79.2114 </r>
       <r>    70.1768     1.2741    79.5523 </r>
       <r>    70.4443     0.8191    79.7714 </r>
       <r>    70.7118     0.7000    79.9586 </r>
       <r>    70.9793     0.0941    79.9838 </r>
       <r>    71.2468     0.0025    79.9845 </r>
       <r>    71.5143     0.0581    80.0000 </r>
       <r>    71.7819     0.0001    80.0001 </r>
       <r>    72.0494    -0.0003    80.0000 </r>
       <r>    72.3169    -0.0000    80.0000 </r>
       <r>    72.5844    -0.0000    80.0000 </r>
       <r>    72.8519     0.0000    80.0000 </r>
       <r>    73.1194     0.0000    80.0000 </r>
       <r>    73.3869     0.0000    80.0000 </r>
       <r>    73.6545     0.0000    80.0000 </r>
       <r>    73.9220     0.0000    80.0000 </r>
       <r>    74.1895     0.0000    80.0000 </r>
       <r>    74.4570     0.0000    80.0000 </r>
       <r>    74.7245     0.0000    80.0000 </r>
       <r>    74.9920     0.0000    80.0000 </r>
      </set>
     </set>
    </array>
   </total>
  </dos>
 </calculation>
 <structure name="finalpos" >
  <crystal>
   <varray name="basis" >
    <v>       2.33000000       0.00000000       0.00000000 </v>
    <v>      -1.16500000       2.01783919       0.00000000 </v>
    <v>       0.00000000       0.00000000       4.05900000 </v>
   </varray>
   <i name="volume">     19.08365361 </i>
   <varray name="rec_basis" >
    <v>       0.42918455       0.24778982       0.00000000 </v>
    <v>       0.00000000       0.49557963       0.00000000 </v>
    <v>       0.00000000       0.00000000       0.24636610 </v>
   </varray>
  </crystal>
  <varray name="positions" >
   <v>       0.00000000       0.00000000       0.00000000 </v>
   <v>       0.33333333       0.66666667       0.50000000 </v>
  </varray>
 </structure>
</modeling>
