unknown system                          
   1.00000000000000     
     2.260100    0.000000    0.000000
    -1.130050    1.957304    0.000000
     0.000000    0.000000    4.016770
   Fe
     2
Direct
  0.000000  0.000000  0.000000
  0.333333  0.666667  0.500000
 
   20   20   32
  149.06      141.69      121.77      94.710      66.707      42.614      25.126      14.800      10.339      9.1366    
  8.8381      9.1366      10.339      14.800      25.126      42.614      66.707      94.710      121.77      141.69    
  141.69      141.69      128.07      104.74      77.541      51.991      31.790      18.507      11.728      9.4199    
  8.8314      8.8312      9.4198      11.728      18.507      31.789      51.990      77.543      104.74      128.08    
  121.77      128.05      121.77      104.74      81.529      57.442      36.751      21.891      13.338      9.8118    
  8.8407      8.5542      8.8404      9.8119      13.338      21.890      36.749      57.440      81.531      104.74    
  94.708      104.67      104.67      94.710      77.541      57.442      38.587      23.912      14.639      10.255    
  8.8589      8.3443      8.3442      8.8588      10.255      14.640      23.911      38.585      57.439      77.538    
  66.700      77.451      81.405      77.456      66.707      51.991      36.751      23.912      15.138      10.555    
  8.8815      8.2141      7.9744      8.2140      8.8815      10.555      15.140      23.914      36.751      51.986    
  42.613      51.914      57.309      57.310      51.918      42.614      31.790      21.891      14.639      10.555    
  8.8943      8.1549      7.7574      7.7574      8.1546      8.8934      10.555      14.641      21.895      31.793    
  25.131      31.759      36.670      38.482      36.668      31.755      25.126      18.507      13.338      10.255    
  8.8815      8.1549      7.6874      7.5297      7.6876      8.1542      8.8794      10.253      13.338      18.511    
  14.800      18.515      21.883      23.883      23.881      21.878      18.511      14.800      11.728      9.8118    
  8.8589      8.2141      7.7574      7.5297      7.5302      7.7583      8.2139      8.8566      9.8078      11.724    
  10.334      11.750      13.377      14.682      15.179      14.680      13.377      11.753      10.339      9.4200    
  8.8407      8.3443      7.9743      7.7574      7.6877      7.7583      7.9763      8.3464      8.8407      9.4165    
  9.1364      9.4481      9.8674      10.332      10.643      10.644      10.334      9.8714      9.4514      9.1366    
  8.8314      8.5542      8.3442      8.2140      8.1546      8.1542      8.2139      8.3464      8.5584      8.8347    
  8.8430      8.8666      8.9034      8.9462      8.9877      9.0085      8.9899      8.9484      8.9032      8.8632    
  8.8381      8.8312      8.8404      8.8588      8.8815      8.8934      8.8794      8.8566      8.8407      8.8347    
  9.1364      8.8666      8.6218      8.4394      8.3310      8.2850      8.2854      8.3310      8.4372      8.6177    
  8.8634      9.1366      9.4198      9.8119      10.255      10.555      10.555      10.253      9.8079      9.4165    
  10.334      9.4481      8.9034      8.4394      8.0967      7.8986      7.8354      7.8978      8.0948      8.4373    
  8.9034      9.4516      10.339      11.728      13.338      14.640      15.140      14.641      13.338      11.724    
  14.800      11.750      9.8674      8.9462      8.3310      7.8986      7.6843      7.6839      7.8978      8.3311    
  8.9485      9.8713      11.753      14.800      18.507      21.890      23.911      23.914      21.895      18.511    
  25.131      18.515      13.377      10.332      8.9877      8.2850      7.8354      7.6839      7.8352      8.2857    
  8.9899      10.334      13.377      18.511      25.126      31.789      36.749      38.585      36.751      31.793    
  42.613      31.759      21.883      14.682      10.643      9.0085      8.2854      7.8978      7.8978      8.2857    
  9.0093      10.643      14.680      21.879      31.756      42.614      51.990      57.440      57.439      51.986    
  66.700      51.914      36.670      23.883      15.179      10.644      8.9899      8.3310      8.0948      8.3311    
  8.9899      10.643      15.178      23.881      36.670      51.919      66.707      77.543      81.531      77.538    
  94.708      77.451      57.309      38.482      23.881      14.680      10.334      8.9484      8.4372      8.4373    
  8.9485      10.334      14.679      23.881      38.484      57.312      77.454      94.710      104.74      104.74    
  121.77      104.67      81.405      57.310      36.668      21.878      13.377      9.8714      8.9032      8.6177    
  8.9034      9.8713      13.377      21.879      36.670      57.312      81.403      104.67      121.77      128.08    
  141.69      128.05      104.67      77.456      51.918      31.755      18.511      11.753      9.4514      8.8632    
  8.8633      9.4516      11.753      18.511      31.756      51.919      77.454      104.67      128.04      141.69    
  140.01      133.09      114.38      88.947      62.610      39.984      23.644      14.102      10.060      8.9695    
  8.6776      8.9695      10.060      14.102      23.644      39.984      62.610      88.947      114.38      133.09    
  133.10      133.09      120.31      98.369      72.788      48.767      29.840      17.494      11.291      9.2228    
  8.6599      8.6598      9.2227      11.291      17.494      29.839      48.766      72.790      98.375      120.31    
  114.39      120.29      114.38      98.369      76.534      53.879      34.466      20.611      12.737      9.5571    
  8.6629      8.3844      8.6626      9.5571      12.737      20.610      34.464      53.878      76.536      98.374    
  88.945      98.323      98.323      88.947      72.788      53.879      36.179      22.478      13.914      9.9387    
  8.6779      8.1788      8.1787      8.6778      9.9392      13.914      22.478      36.178      53.876      72.785    
  62.603      72.725      76.448      72.730      62.610      48.767      34.466      22.478      14.367      10.200    
  8.6954      8.0526      7.8222      8.0525      8.6954      10.201      14.369      22.480      34.466      48.763    
  39.983      48.724      53.799      53.800      48.727      39.984      29.840      20.611      13.914      10.200    
  8.7049      7.9956      7.6146      7.6147      7.9953      8.7041      10.200      13.916      20.615      29.842    
  23.649      29.842      34.444      36.144      34.442      29.838      23.644      17.494      12.737      9.9387    
  8.6954      7.9956      7.5478      7.3976      7.5481      7.9949      8.6934      9.9368      12.737      17.498    
  14.102      17.533      20.661      22.525      22.523      20.657      17.529      14.102      11.291      9.5571    
  8.6779      8.0526      7.6146      7.3976      7.3980      7.6154      8.0524      8.6758      9.5534      11.288    
  10.055      11.342      12.831      14.031      14.490      14.030      12.831      11.345      10.060      9.2228    
  8.6629      8.1788      7.8222      7.6147      7.5481      7.6154      7.8239      8.1807      8.6629      9.2196    
  8.9694      9.2781      9.6652      10.088      10.372      10.373      10.091      9.6688      9.2812      8.9695    
  8.6599      8.3844      8.1787      8.0525      7.9954      7.9949      8.0524      8.1807      8.3883      8.6630    
  8.6821      8.7214      8.7767      8.8373      8.8877      8.9101      8.8896      8.8393      8.7765      8.7182    
  8.6776      8.6598      8.6626      8.6778      8.6954      8.7041      8.6934      8.6758      8.6629      8.6630    
  8.9694      8.7214      8.5026      8.3457      8.2573      8.2221      8.2225      8.2573      8.3436      8.4987    
  8.7183      8.9695      9.2227      9.5571      9.9392      10.201      10.200      9.9368      9.5534      9.2196    
  10.055      9.2781      8.7767      8.3457      8.0327      7.8548      7.7987      7.8541      8.0310      8.3438    
  8.7767      9.2813      10.060      11.291      12.737      13.914      14.369      13.916      12.737      11.288    
  14.102      11.342      9.6652      8.8373      8.2573      7.8548      7.6572      7.6568      7.8541      8.2574    
  8.8393      9.6687      11.345      14.102      17.494      20.610      22.478      22.480      20.615      17.498    
  23.649      17.533      12.831      10.088      8.8876      8.2221      7.7987      7.6568      7.7984      8.2227    
  8.8896      10.090      12.831      17.529      23.644      29.839      34.464      36.178      34.466      29.842    
  39.983      29.842      20.661      14.031      10.372      8.9101      8.2225      7.8541      7.8541      8.2227    
  8.9109      10.373      14.029      20.657      29.839      39.984      48.766      53.878      53.876      48.763    
  62.603      48.724      34.444      22.525      14.490      10.373      8.8896      8.2573      8.0310      8.2574    
  8.8896      10.373      14.489      22.523      34.444      48.728      62.610      72.790      76.536      72.785    
  88.945      72.725      53.799      36.144      22.523      14.030      10.091      8.8393      8.3437      8.3438    
  8.8393      10.090      14.029      22.523      36.146      53.802      72.728      88.947      98.375      98.374    
  114.39      98.323      76.448      53.800      34.442      20.657      12.831      9.6688      8.7765      8.4988    
  8.7767      9.6687      12.831      20.657      34.444      53.802      76.446      98.317      114.38      120.31    
  133.10      120.29      98.323      72.730      48.727      29.838      17.529      11.345      9.2812      8.7182    
  8.7183      9.2813      11.345      17.529      29.839      48.728      72.728      98.317      120.28      133.09    
  116.07      110.34      94.807      73.655      51.758      33.067      19.808      12.341      9.3647      8.5156    
  8.2446      8.5156      9.3647      12.341      19.808      33.067      51.758      73.655      94.807      110.34    
  110.34      110.34      99.721      81.475      60.181      40.256      24.749      14.907      10.203      8.7097    
  8.1995      8.1994      8.7095      10.204      14.907      24.749      40.256      60.183      81.480      99.727    
  94.811      99.722      94.807      81.475      63.285      44.457      28.475      17.314      11.227      8.9156    
  8.1835      7.9295      8.1832      8.9156      11.227      17.313      28.474      44.456      63.286      81.479    
  73.653      81.475      81.475      73.655      60.181      44.457      29.861      18.771      12.081      9.1495    
  8.1867      7.7339      7.7337      8.1866      9.1498      12.082      18.771      29.860      44.455      60.179    
  51.753      60.192      63.299      60.196      51.758      40.256      28.475      18.771      12.414      9.3143    
  8.1960      7.6160      7.4121      7.6160      8.1960      9.3148      12.415      18.773      28.475      40.253    
  33.067      40.300      44.518      44.519      40.303      33.067      24.749      17.314      12.081      9.3143    
  8.2005      7.5634      7.2282      7.2283      7.5633      8.1999      9.3142      12.083      17.317      24.752    
  19.812      24.837      28.609      30.008      28.608      24.834      19.808      14.907      11.227      9.1495    
  8.1960      7.5634      7.1696      7.0393      7.1699      7.5629      8.1945      9.1480      11.227      14.910    
  12.341      15.024      17.514      19.012      19.010      17.510      15.021      12.341      10.203      8.9156    
  8.1867      7.6160      7.2282      7.0393      7.0396      7.2288      7.6159      8.1850      8.9128      10.201    
  9.3608      10.325      11.458      12.384      12.741      12.383      11.458      10.328      9.3647      8.7097    
  8.1835      7.7339      7.4121      7.2283      7.1699      7.2288      7.4134      7.7353      8.1835      8.7071    
  8.5155      8.8301      9.1497      9.4737      9.6886      9.6891      9.4756      9.1526      8.8325      8.5156    
  8.1995      7.9295      7.7337      7.6160      7.5633      7.5629      7.6159      7.7353      7.9326      8.2020    
  8.2481      8.3227      8.4173      8.5137      8.5873      8.6155      8.5888      8.5152      8.4170      8.3202    
  8.2446      8.1994      8.1832      8.1866      8.1960      8.1999      8.1944      8.1850      8.1835      8.2020    
  8.5155      8.3227      8.1651      8.0643      8.0175      8.0041      8.0045      8.0176      8.0626      8.1620    
  8.3203      8.5156      8.7095      8.9156      9.1498      9.3148      9.3142      9.1480      8.9128      8.7071    
  9.3608      8.8301      8.4173      8.0643      7.8181      7.6836      7.6423      7.6831      7.8168      8.0628    
  8.4173      8.8327      9.3647      10.204      11.227      12.082      12.415      12.083      11.227      10.201    
  12.341      10.325      9.1497      8.5137      8.0175      7.6836      7.5230      7.5227      7.6830      8.0176    
  8.5153      9.1525      10.328      12.341      14.907      17.313      18.771      18.773      17.317      14.910    
  19.812      15.024      11.458      9.4737      8.5872      8.0041      7.6423      7.5227      7.6421      8.0046    
  8.5888      9.4752      11.458      15.021      19.808      24.749      28.474      29.860      28.475      24.752    
  33.067      24.837      17.514      12.384      9.6886      8.6155      8.0045      7.6831      7.6830      8.0046    
  8.6161      9.6887      12.383      17.511      24.835      33.067      40.256      44.456      44.455      40.253    
  51.753      40.300      28.609      19.012      12.741      9.6891      8.5888      8.0176      7.8168      8.0176    
  8.5888      9.6887      12.740      19.010      28.609      40.303      51.758      60.183      63.286      60.179    
  73.653      60.192      44.518      30.008      19.010      12.383      9.4756      8.5152      8.0626      8.0628    
  8.5153      9.4752      12.383      19.010      30.010      44.520      60.194      73.655      81.480      81.479    
  94.811      81.475      63.299      44.519      28.608      17.510      11.458      9.1526      8.4170      8.1620    
  8.4173      9.1525      11.458      17.511      28.609      44.520      63.298      81.470      94.807      99.727    
  110.34      99.722      81.475      60.196      40.303      24.834      15.021      10.328      8.8325      8.3202    
  8.3203      8.8327      10.328      15.021      24.835      40.303      60.194      81.470      99.716      110.34    
  84.941      80.729      69.303      53.741      37.720      24.284      15.113      10.303      8.5513      7.8975    
  7.6633      7.8975      8.5513      10.303      15.113      24.284      37.720      53.741      69.303      80.729    
  80.731      80.729      72.908      59.460      43.814      29.346      18.402      11.831      8.9668      8.0276    
  7.5839      7.5838      8.0275      8.9670      11.831      18.401      29.346      43.815      59.463      72.912    
  69.305      72.931      69.303      59.460      46.066      32.331      20.933      13.324      9.4921      8.1366    
  7.5375      7.3234      7.5372      8.1365      9.4923      13.324      20.932      32.330      46.067      59.463    
  53.740      59.520      59.520      53.741      43.814      32.331      21.882      14.249      9.9517      8.2267    
  7.5164      7.1373      7.1371      7.5163      8.2269      9.9520      14.249      21.881      32.329      43.812    
  37.717      43.918      46.210      43.921      37.720      29.346      20.933      14.249      10.135      8.2892    
  7.5099      7.0250      6.8598      7.0250      7.5100      8.2895      10.136      14.250      20.933      29.344    
  24.284      29.500      32.572      32.572      29.502      24.284      18.402      13.324      9.9517      8.2892    
  7.5090      6.9743      6.7039      6.7041      6.9744      7.5086      8.2891      9.9527      13.326      18.403    
  15.115      18.597      21.261      22.258      21.260      18.595      15.113      11.831      9.4921      8.2267    
  7.5100      6.9743      6.6546      6.5509      6.6549      6.9741      7.5090      8.2258      9.4923      11.832    
  10.302      12.042      13.706      14.725      14.724      13.704      12.040      10.303      8.9668      8.1366    
  7.5164      7.0250      6.7039      6.5509      6.5511      6.7042      7.0249      7.5154      8.1347      8.9652    
  8.5486      9.1716      9.8841      10.474      10.703      10.473      9.8841      9.1733      8.5513      8.0276    
  7.5375      7.1373      6.8597      6.7041      6.6549      6.7042      6.8604      7.1382      7.5375      8.0258    
  7.8974      8.2224      8.5145      8.7496      8.8926      8.8929      8.7507      8.5163      8.2240      7.8975    
  7.5839      7.3234      7.1371      7.0250      6.9744      6.9741      7.0249      7.1382      7.3255      7.5856    
  7.6657      7.7759      7.9039      8.0272      8.1178      8.1516      8.1187      8.0282      7.9037      7.7742    
  7.6633      7.5838      7.5372      7.5163      7.5100      7.5087      7.5090      7.5154      7.5375      7.5856    
  7.8974      7.7759      7.6870      7.6417      7.6316      7.6355      7.6358      7.6317      7.6406      7.6849    
  7.7743      7.8975      8.0275      8.1365      8.2269      8.2895      8.2891      8.2258      8.1347      8.0258    
  8.5486      8.2224      7.9039      7.6417      7.4657      7.3731      7.3455      7.3729      7.4650      7.6407    
  7.9039      8.2242      8.5513      8.9670      9.4923      9.9520      10.136      9.9527      9.4923      8.9652    
  10.302      9.1716      8.5145      8.0272      7.6316      7.3731      7.2512      7.2510      7.3728      7.6317    
  8.0283      8.5163      9.1732      10.303      11.831      13.324      14.249      14.250      13.326      11.832    
  15.115      12.042      9.8841      8.7496      8.1178      7.6355      7.3455      7.2510      7.3453      7.6357    
  8.1187      8.7505      9.8838      12.040      15.113      18.401      20.932      21.881      20.933      18.403    
  24.284      18.597      13.706      10.474      8.8926      8.1516      7.6358      7.3729      7.3728      7.6357    
  8.1519      8.8928      10.473      13.704      18.595      24.284      29.346      32.330      32.329      29.344    
  37.717      29.500      21.261      14.725      10.703      8.8929      8.1187      7.6317      7.4650      7.6317    
  8.1187      8.8928      10.702      14.724      21.261      29.502      37.720      43.815      46.067      43.812    
  53.740      43.918      32.572      22.258      14.724      10.473      8.7507      8.0282      7.6406      7.6408    
  8.0283      8.7505      10.473      14.724      22.259      32.573      43.920      53.741      59.463      59.463    
  69.305      59.520      46.210      32.572      21.260      13.704      9.8841      8.5163      7.9037      7.6849    
  7.9039      8.5163      9.8838      13.704      21.261      32.573      46.209      59.517      69.303      72.912    
  80.731      72.931      59.520      43.921      29.502      18.595      12.040      9.1733      8.2240      7.7742    
  7.7743      8.2242      9.1732      12.040      18.595      29.502      43.920      59.517      72.928      80.729    
  54.815      52.075      44.659      34.632      24.500      16.327      11.138      8.7122      7.7946      7.2630    
  7.0787      7.2630      7.7946      8.7122      11.138      16.327      24.500      34.632      44.659      52.075    
  52.076      52.075      46.982      38.266      28.259      19.273      12.848      9.3491      7.9718      7.3145    
  6.9627      6.9626      7.3144      7.9719      9.3493      12.848      19.273      28.260      38.268      46.984    
  44.660      47.025      44.659      38.266      29.660      21.042      14.214      10.016      8.1345      7.3580    
  6.8776      6.7135      6.8774      7.3579      8.1347      10.016      14.214      21.042      29.661      38.268    
  34.632      38.379      38.379      34.632      28.259      21.042      14.736      10.446      8.2787      7.3849    
  6.8218      6.5320      6.5319      6.8217      7.3850      8.2788      10.446      14.736      21.042      28.259    
  24.498      28.447      29.919      28.448      24.500      19.273      14.214      10.446      8.3386      7.3964    
  6.7909      6.4185      6.2959      6.4186      6.7909      7.3964      8.3388      10.446      14.214      19.272    
  16.327      19.523      21.440      21.441      19.524      16.327      12.848      10.016      8.2787      7.3964    
  6.7811      6.3652      6.1636      6.1637      6.3654      6.7810      7.3963      8.2793      10.017      12.849    
  11.140      13.135      14.712      15.310      14.711      13.134      11.138      9.3491      8.1345      7.3849    
  6.7909      6.3652      6.1216      6.0441      6.1218      6.3652      6.7905      7.3845      8.1347      9.3501    
  8.7120      9.6433      10.557      11.128      11.128      10.556      9.6426      8.7121      7.9718      7.3580    
  6.8218      6.4185      6.1636      6.0441      6.0442      6.1637      6.4184      6.8213      7.3571      7.9709    
  7.7931      8.2525      8.6723      8.9979      9.1230      8.9975      8.6723      8.2535      7.7946      7.3145    
  6.8776      6.5320      6.2959      6.1637      6.1218      6.1637      6.2961      6.5324      6.8776      7.3135    
  7.2629      7.5803      7.8723      8.0950      8.2151      8.2152      8.0955      7.8731      7.5811      7.2630    
  6.9627      6.7135      6.5319      6.4186      6.3654      6.3652      6.4184      6.5324      6.7146      6.9636    
  7.0800      7.2213      7.3729      7.5117      7.6104      7.6464      7.6108      7.5121      7.3727      7.2203    
  7.0787      6.9626      6.8774      6.8217      6.7909      6.7810      6.7905      6.8213      6.8776      6.9636    
  7.2629      7.2213      7.2023      7.2090      7.2304      7.2484      7.2486      7.2306      7.2085      7.2012    
  7.2204      7.2630      7.3144      7.3579      7.3849      7.3964      7.3963      7.3845      7.3571      7.3135    
  7.7931      7.5803      7.3730      7.2090      7.1042      7.0521      7.0374      7.0522      7.1040      7.2085    
  7.3730      7.5812      7.7946      7.9719      8.1347      8.2788      8.3388      8.2793      8.1347      7.9709    
  8.7120      8.2525      7.8723      7.5117      7.2304      7.0521      6.9697      6.9697      7.0520      7.2305    
  7.5122      7.8732      8.2534      8.7122      9.3493      10.016      10.446      10.446      10.017      9.3501    
  11.140      9.6433      8.6723      8.0950      7.6104      7.2484      7.0374      6.9697      7.0372      7.2484    
  7.6108      8.0955      8.6721      9.6423      11.138      12.848      14.214      14.736      14.214      12.849    
  16.327      13.135      10.557      8.9979      8.2151      7.6464      7.2486      7.0522      7.0520      7.2484    
  7.6465      8.2152      8.9974      10.556      13.134      16.327      19.273      21.042      21.042      19.272    
  24.498      19.523      14.712      11.128      9.1230      8.2152      7.6108      7.2306      7.1040      7.2305    
  7.6108      8.2152      9.1228      11.128      14.712      19.524      24.500      28.260      29.661      28.259    
  34.632      28.447      21.440      15.310      11.128      8.9975      8.0955      7.5121      7.2085      7.2085    
  7.5122      8.0955      8.9974      11.128      15.311      21.441      28.448      34.632      38.268      38.268    
  44.660      38.379      29.919      21.441      14.711      10.556      8.6723      7.8731      7.3727      7.2012    
  7.3729      7.8732      8.6721      10.556      14.712      21.441      29.918      38.377      44.659      46.984    
  52.076      47.025      38.379      28.448      19.524      13.134      9.6426      8.2535      7.5811      7.2203    
  7.2204      7.5812      8.2534      9.6423      13.134      19.524      28.448      38.377      47.023      52.075    
  31.300      29.766      25.650      20.204      14.927      10.976      8.7448      7.7500      7.1227      6.7303    
  6.5999      6.7303      7.1228      7.7500      8.7448      10.976      14.927      20.204      25.650      29.766    
  29.766      29.766      26.917      22.118      16.781      12.260      9.3312      7.9143      7.1974      6.6969    
  6.4453      6.4453      6.6968      7.1975      7.9146      9.3314      12.260      16.781      22.118      26.918    
  25.650      26.971      25.650      22.118      17.483      13.061      9.8348      8.0712      7.2422      6.6685    
  6.3194      6.2049      6.3193      6.6684      7.2424      8.0714      9.8347      13.061      17.484      22.118    
  20.204      22.260      22.260      20.204      16.781      13.061      10.034      8.1781      7.2601      6.6446    
  6.2264      6.0230      6.0229      6.2263      6.6445      7.2601      8.1780      10.034      13.061      16.780    
  14.926      17.014      17.805      17.015      14.927      12.260      9.8348      8.1781      7.2639      6.6300    
  6.1692      5.9034      5.8184      5.9034      6.1692      6.6299      7.2639      8.1781      9.8348      12.260    
  10.976      12.567      13.549      13.549      12.567      10.976      9.3312      8.0712      7.2601      6.6300    
  6.1498      5.8446      5.7015      5.7016      5.8447      6.1499      6.6300      7.2603      8.0717      9.3317    
  8.7452      9.6771      10.435      10.729      10.435      9.6769      8.7448      7.9143      7.2422      6.6446    
  6.1692      5.8446      5.6637      5.6068      5.6639      5.8446      6.1691      6.6445      7.2424      7.9148    
  7.7499      8.2692      8.7236      9.0012      9.0011      8.7233      8.2691      7.7500      7.1974      6.6685    
  6.2264      5.9034      5.7015      5.6068      5.6068      5.7014      5.9033      6.2263      6.6682      7.1971    
  7.1221      7.5440      7.9008      8.1381      8.2211      8.1379      7.9008      7.5445      7.1228      6.6969    
  6.3194      6.0230      5.8184      5.7016      5.6639      5.7014      5.8184      6.0231      6.3194      6.6965    
  6.7302      7.0324      7.3142      7.5331      7.6528      7.6528      7.5331      7.3144      7.0327      6.7303    
  6.4453      6.2049      6.0229      5.9034      5.8447      5.8446      5.9033      6.0231      6.2053      6.4456    
  6.6003      6.7745      6.9520      7.1088      7.2179      7.2572      7.2180      7.1089      6.9518      6.7741    
  6.5999      6.4453      6.3193      6.2263      6.1692      6.1499      6.1691      6.2263      6.3194      6.4456    
  6.7302      6.7745      6.8325      6.8992      6.9603      6.9974      6.9975      6.9604      6.8991      6.8321    
  6.7742      6.7303      6.6968      6.6684      6.6445      6.6299      6.6300      6.6445      6.6682      6.6965    
  7.1221      7.0324      6.9520      6.8992      6.8770      6.8742      6.8756      6.8743      6.8771      6.8991    
  6.9520      7.0328      7.1228      7.1975      7.2424      7.2601      7.2639      7.2603      7.2424      7.1971    
  7.7499      7.5440      7.3142      7.1088      6.9603      6.8742      6.8377      6.8378      6.8742      6.9604    
  7.1090      7.3145      7.5443      7.7500      7.9146      8.0714      8.1780      8.1781      8.0717      7.9148    
  8.7452      8.2692      7.9008      7.5331      7.2179      6.9974      6.8756      6.8378      6.8754      6.9973    
  7.2180      7.5332      7.9006      8.2688      8.7448      9.3314      9.8347      10.034      9.8348      9.3317    
  10.976      9.6771      8.7236      8.1381      7.6528      7.2572      6.9975      6.8743      6.8742      6.9973    
  7.2572      7.6529      8.1380      8.7231      9.6767      10.976      12.260      13.061      13.061      12.260    
  14.926      12.567      10.435      9.0012      8.2212      7.6528      7.2180      6.9604      6.8771      6.9604    
  7.2180      7.6529      8.2212      9.0012      10.435      12.567      14.927      16.781      17.484      16.780    
  20.204      17.014      13.549      10.729      9.0011      8.1379      7.5331      7.1089      6.8991      6.8991    
  7.1090      7.5332      8.1380      9.0012      10.729      13.549      17.015      20.204      22.118      22.118    
  25.650      22.260      17.805      13.549      10.435      8.7233      7.9008      7.3144      6.9518      6.8321    
  6.9520      7.3145      7.9006      8.7231      10.435      13.549      17.805      22.259      25.650      26.918    
  29.766      26.971      22.260      17.015      12.567      9.6769      8.2691      7.5445      7.0327      6.7741    
  6.7742      7.0328      7.5443      8.2688      9.6767      12.567      17.015      22.259      26.971      29.766    
  16.578      15.899      14.111      11.848      9.8168      8.4484      7.6653      7.0671      6.6236      6.3646    
  6.2813      6.3646      6.6236      7.0671      7.6653      8.4484      9.8169      11.848      14.111      15.899    
  15.899      15.899      14.640      12.585      10.432      8.7691      7.7707      7.1145      6.5933      6.2499    
  6.0856      6.0856      6.2499      6.5933      7.1147      7.7708      8.7691      10.432      12.585      14.640    
  14.111      14.694      14.111      12.585      10.673      8.9835      7.8497      7.1379      6.5654      6.1555    