unknown system                          
   1.00000000000000     
     2.260100    0.000000    0.000000
    -1.130050    1.957304    0.000000
     0.000000    0.000000    4.016770
   Fe
     2
Direct
  0.000000  0.000000  0.000000
  0.333333  0.666667  0.500000
 
   20   20   32
 0.14905552595E+03 0.14168733457E+03 0.12176510809E+03 0.94709853417E+02 0.66706594364E+02
 0.42613815423E+02 0.25125794481E+02 0.14799705415E+02 0.10339224069E+02 0.91365510398E+01
 0.88381190421E+01 0.91365854857E+01 0.10339255954E+02 0.14799708976E+02 0.25125786799E+02
 0.42613829865E+02 0.66706633464E+02 0.94709885372E+02 0.12176510991E+03 0.14168732119E+03
 0.14169061332E+03 0.14168733044E+03 0.12807431661E+03 0.10473604610E+03 0.77540853254E+02
 0.51990515899E+02 0.31790037207E+02 0.18507185022E+02 0.11727533535E+02 0.94199489363E+01
 0.88313837735E+01 0.88312457025E+01 0.94198161140E+01 0.11727588370E+02 0.18506805699E+02
 0.31788758829E+02 0.51989671936E+02 0.77543104509E+02 0.10474233905E+03 0.12808164668E+03
 0.12176996938E+03 0.12805120263E+03 0.12176510941E+03 0.10473605057E+03 0.81528521436E+02
 0.57441862495E+02 0.36751386902E+02 0.21891171255E+02 0.13338213458E+02 0.98117862876E+01
 0.88407092214E+01 0.85542043834E+01 0.88404229625E+01 0.98118565957E+01 0.13338467749E+02
 0.21890368378E+02 0.36749208934E+02 0.57440446081E+02 0.81530662883E+02 0.10474156777E+03
 0.94707630924E+02 0.10467283770E+03 0.10467359212E+03 0.94709862060E+02 0.77540851078E+02
 0.57441858084E+02 0.38587106313E+02 0.23911500464E+02 0.14638831399E+02 0.10254671799E+02
 0.88588681378E+01 0.83443308052E+01 0.83441747289E+01 0.88587963025E+01 0.10255233309E+02
 0.14639688092E+02 0.23911451229E+02 0.38585273121E+02 0.57438637126E+02 0.77537557939E+02
 0.66699590954E+02 0.77450729328E+02 0.81405250992E+02 0.77456236442E+02 0.66706594417E+02
 0.51990507242E+02 0.36751390204E+02 0.23911504546E+02 0.15137932308E+02 0.10554757518E+02
 0.88815413653E+01 0.82140770694E+01 0.79743527886E+01 0.82139816173E+01 0.88815487533E+01
 0.10555483513E+02 0.15139854941E+02 0.23913705677E+02 0.36751391969E+02 0.51986379813E+02
 0.42612970860E+02 0.51914459018E+02 0.57308516191E+02 0.57310319697E+02 0.51917737027E+02
 0.42613811122E+02 0.31790038606E+02 0.21891179395E+02 0.14638826858E+02 0.10554753912E+02
 0.88942554792E+01 0.81548553028E+01 0.77573963239E+01 0.77574479916E+01 0.81545792577E+01
 0.88934159660E+01 0.10554624507E+02 0.14641083534E+02 0.21895290788E+02 0.31792909957E+02
 0.25130646274E+02 0.31758792288E+02 0.36669912393E+02 0.38481856963E+02 0.36667765684E+02
 0.31754674716E+02 0.25125791200E+02 0.18507189367E+02 0.13338210515E+02 0.10254664527E+02
 0.88815471264E+01 0.81548583579E+01 0.76873801690E+01 0.75297057680E+01 0.76876498866E+01
 0.81541502926E+01 0.88793657181E+01 0.10252548821E+02 0.13338467749E+02 0.18510527862E+02
 0.14799655307E+02 0.18514516778E+02 0.21882688690E+02 0.23883170908E+02 0.23880943725E+02
 0.21877816496E+02 0.18510816712E+02 0.14799702575E+02 0.11727536169E+02 0.98117821953E+01
 0.88588725197E+01 0.82140832062E+01 0.77573894457E+01 0.75297032654E+01 0.75301894774E+01
 0.77582533291E+01 0.82139279488E+01 0.88565955232E+01 0.98078468608E+01 0.11724242580E+02
 0.10334118918E+02 0.11750141610E+02 0.13377407979E+02 0.14681726547E+02 0.15179435813E+02
 0.14680340404E+02 0.13377406871E+02 0.11753465400E+02 0.10339228778E+02 0.94199511824E+01
 0.88407070532E+01 0.83443342195E+01 0.79743471580E+01 0.77574431142E+01 0.76876577298E+01
 0.77582553298E+01 0.79762582630E+01 0.83464291767E+01 0.88407005234E+01 0.94165239919E+01
 0.91364278582E+01 0.94481435887E+01 0.98674389510E+01 0.10331682496E+02 0.10643138614E+02
 0.10643979214E+02 0.10334330710E+02 0.98714248023E+01 0.94514237377E+01 0.91365565706E+01
 0.88313781322E+01 0.85542024746E+01 0.83441765920E+01 0.82139792471E+01 0.81545859446E+01
 0.81541539244E+01 0.82139194419E+01 0.83464276254E+01 0.85584254143E+01 0.88346954522E+01
 0.88429785170E+01 0.88666088250E+01 0.89034298797E+01 0.89462475900E+01 0.89877353074E+01
 0.90084730722E+01 0.89898793062E+01 0.89484263410E+01 0.89031806904E+01 0.88632007837E+01
 0.88381167982E+01 0.88312411434E+01 0.88404294924E+01 0.88587982125E+01 0.88815471264E+01
 0.88934171120E+01 0.88793583301E+01 0.88565930513E+01 0.88407092214E+01 0.88346965343E+01
 0.91364195234E+01 0.88666082928E+01 0.86218146148E+01 0.84394091452E+01 0.83309904569E+01
 0.82849850596E+01 0.82854049419E+01 0.83310359710E+01 0.84371788463E+01 0.86176507143E+01
 0.88633529388E+01 0.91365826817E+01 0.94198196660E+01 0.98118600432E+01 0.10255226084E+02
 0.10555481401E+02 0.10554626002E+02 0.10252548868E+02 0.98078544007E+01 0.94165252977E+01
 0.10334111852E+02 0.94481435445E+01 0.89034373711E+01 0.84394090714E+01 0.80966803190E+01
 0.78986277017E+01 0.78354223450E+01 0.78978395797E+01 0.80947886144E+01 0.84373103628E+01
 0.89034334322E+01 0.94515813652E+01 0.10339253597E+02 0.11727589837E+02 0.13338463256E+02
 0.14639685864E+02 0.15139862601E+02 0.14641085847E+02 0.13338466200E+02 0.11724241413E+02
 0.14799657108E+02 0.11750143816E+02 0.98674450432E+01 0.89462463556E+01 0.83309841451E+01
 0.78986283235E+01 0.76843386755E+01 0.76838723401E+01 0.78977912734E+01 0.83311191812E+01
 0.89484540087E+01 0.98713154811E+01 0.11753417094E+02 0.14799707937E+02 0.18506807633E+02
 0.21890368695E+02 0.23911456240E+02 0.23913706605E+02 0.21895282965E+02 0.18510525450E+02
 0.25130653956E+02 0.18514519149E+02 0.13377405859E+02 0.10331679440E+02 0.89877305041E+01
 0.82849873451E+01 0.78354272690E+01 0.76838713699E+01 0.78351696033E+01 0.82856924248E+01
 0.89898793062E+01 0.10333754083E+02 0.13377129310E+02 0.18511182043E+02 0.25125791200E+02
 0.31788760601E+02 0.36749207169E+02 0.38585270864E+02 0.36751386902E+02 0.31792910330E+02
 0.42612975523E+02 0.31758790722E+02 0.21882681529E+02 0.14681724404E+02 0.10643141007E+02
 0.90084766026E+01 0.82854082460E+01 0.78978367296E+01 0.78977878015E+01 0.82856934434E+01
 0.90093336111E+01 0.10643296942E+02 0.14679500504E+02 0.21878602727E+02 0.31755944657E+02
 0.42613830228E+02 0.51989667341E+02 0.57440443536E+02 0.57438638992E+02 0.51986383877E+02
 0.66699588753E+02 0.51914453526E+02 0.36669908580E+02 0.23883173467E+02 0.15179442059E+02
 0.10643980907E+02 0.89898766411E+01 0.83310324514E+01 0.80947869236E+01 0.83311219734E+01
 0.89898814445E+01 0.10643296241E+02 0.15177567237E+02 0.23880997394E+02 0.36669911821E+02
 0.51918596032E+02 0.66706631315E+02 0.77543105526E+02 0.81530667573E+02 0.77537561132E+02
 0.94707626234E+02 0.77450725712E+02 0.57308518872E+02 0.38481863323E+02 0.23880946285E+02
 0.14680337122E+02 0.10334325622E+02 0.89484252316E+01 0.84371818890E+01 0.84373134793E+01
 0.89484541337E+01 0.10333752051E+02 0.14679499364E+02 0.23880997394E+02 0.38483654104E+02
 0.57311687873E+02 0.77454009259E+02 0.94709889326E+02 0.10474234116E+03 0.10474156541E+03
 0.12176996757E+03 0.10467284109E+03 0.81405255467E+02 0.57310323412E+02 0.36667762443E+02
 0.21877809906E+02 0.13377405859E+02 0.98714284601E+01 0.89031846294E+01 0.86176513751E+01
 0.89034298797E+01 0.98713130467E+01 0.13377130418E+02 0.21878603299E+02 0.36669912393E+02
 0.57311688908E+02 0.81403067957E+02 0.10466730595E+03 0.12176510941E+03 0.12808164045E+03
 0.14169061410E+03 0.12805121049E+03 0.10467359328E+03 0.77456232427E+02 0.51917733059E+02
 0.31754671289E+02 0.18510820617E+02 0.11753471655E+02 0.94514230774E+01 0.88631972434E+01
 0.88633499308E+01 0.94515807491E+01 0.11753421143E+02 0.18511183577E+02 0.31755942796E+02
 0.51918597557E+02 0.77454008861E+02 0.10466730372E+03 0.12804385969E+03 0.14168731785E+03
 0.14000764012E+03 0.13309236445E+03 0.11438185659E+03 0.88947114368E+02 0.62609917727E+02
 0.39983894284E+02 0.23644215165E+02 0.14101744571E+02 0.10060210068E+02 0.89694987731E+01
 0.86775673441E+01 0.89695326026E+01 0.10060241900E+02 0.14101748937E+02 0.23644207588E+02
 0.39983906587E+02 0.62609953227E+02 0.88947143827E+02 0.11438185838E+03 0.13309235214E+03
 0.13309540864E+03 0.13309236037E+03 0.12030681527E+03 0.98368876642E+02 0.72787683988E+02
 0.48767117090E+02 0.29839691943E+02 0.17494388660E+02 0.11290724727E+02 0.92228159909E+01
 0.86599167300E+01 0.86597807847E+01 0.92226852973E+01 0.11290795088E+02 0.17494083697E+02
 0.29838550945E+02 0.48766350927E+02 0.72789765047E+02 0.98374705677E+02 0.12031361628E+03
 0.11438637202E+03 0.12028999755E+03 0.11438185788E+03 0.98368881050E+02 0.76534241041E+02
 0.53878970764E+02 0.34465703987E+02 0.20611054693E+02 0.12736784843E+02 0.95570822998E+01
 0.86628668174E+01 0.83843656456E+01 0.86625789632E+01 0.95571351097E+01 0.12737040801E+02
 0.20610346403E+02 0.34463702352E+02 0.53877646877E+02 0.76536209740E+02 0.98373994861E+02
 0.88945059624E+02 0.98322593576E+02 0.98323289162E+02 0.88947122897E+02 0.72787681844E+02
 0.53878966418E+02 0.36179486299E+02 0.22477921389E+02 0.13913597537E+02 0.99387255712E+01
 0.86778661617E+01 0.81788050462E+01 0.81786515468E+01 0.86777792622E+01 0.99392253420E+01
 0.13914374294E+02 0.22477857417E+02 0.36177765900E+02 0.53875963765E+02 0.72784624345E+02
 0.62603432949E+02 0.72724822087E+02 0.76448352138E+02 0.72729926819E+02 0.62609917791E+02
 0.48767108562E+02 0.34465707259E+02 0.22477925419E+02 0.14366781992E+02 0.10199956343E+02
 0.86953877128E+01 0.80525757189E+01 0.78222014133E+01 0.80524982627E+01 0.86953949924E+01
 0.10200604491E+02 0.14368526636E+02 0.22479941621E+02 0.34465708982E+02 0.48763294428E+02
 0.39983127538E+02 0.48723947600E+02 0.53798777341E+02 0.53800455299E+02 0.48726991071E+02
 0.39983890057E+02 0.29839693335E+02 0.20611062729E+02 0.13913593049E+02 0.10199952779E+02
 0.87049084548E+01 0.79955660568E+01 0.76146041650E+01 0.76146713817E+01 0.79953471055E+01
 0.87041484244E+01 0.10199825441E+02 0.13915679448E+02 0.20614892768E+02 0.29842386492E+02
 0.23648721235E+02 0.29841597663E+02 0.34443865404E+02 0.36144040271E+02 0.34441891547E+02
 0.29837792395E+02 0.23644211926E+02 0.17494392946E+02 0.12736781929E+02 0.99387183831E+01
 0.86953933838E+01 0.79955690692E+01 0.75478430957E+01 0.73975728950E+01 0.75481146502E+01
 0.79949384585E+01 0.86933883621E+01 0.99367707367E+01 0.12737040801E+02 0.17497510597E+02
 0.14101679747E+02 0.17532587659E+02 0.20661224081E+02 0.22525073624E+02 0.22523014255E+02
 0.20656723030E+02 0.17529179601E+02 0.14101741753E+02 0.11290727318E+02 0.95570782528E+01
 0.86778704714E+01 0.80525817711E+01 0.76145973940E+01 0.73975704317E+01 0.73980124864E+01
 0.76153812416E+01 0.80524290734E+01 0.86757642483E+01 0.95534369839E+01 0.11287669400E+02
 0.10055448968E+02 0.11341973624E+02 0.12831116232E+02 0.14031120035E+02 0.14490199516E+02
 0.14029823937E+02 0.12831115137E+02 0.11345077636E+02 0.10060214706E+02 0.92228182097E+01
 0.86628646775E+01 0.81788084175E+01 0.78221958743E+01 0.76146665833E+01 0.75481223811E+01
 0.76153832142E+01 0.78239287583E+01 0.81807357500E+01 0.86628582486E+01 0.92196287989E+01
 0.89693775743E+01 0.92781157200E+01 0.96651527958E+01 0.10088417058E+02 0.10372434290E+02
 0.10373197125E+02 0.10090840004E+02 0.96688304918E+01 0.92811612975E+01 0.89695042433E+01
 0.86599111868E+01 0.83843637744E+01 0.81786533891E+01 0.80524959320E+01 0.79953536955E+01
 0.79949420361E+01 0.80524206906E+01 0.81807342210E+01 0.83882879891E+01 0.86629923115E+01
 0.86820809913E+01 0.87213532145E+01 0.87767409579E+01 0.88372684931E+01 0.88876508165E+01
 0.89101123483E+01 0.88896219908E+01 0.88392646731E+01 0.87764900362E+01 0.87181818205E+01
 0.86775651683E+01 0.86597763010E+01 0.86625853921E+01 0.86777811395E+01 0.86953933838E+01
 0.87041495482E+01 0.86933810825E+01 0.86757618159E+01 0.86628668174E+01 0.86629933710E+01
 0.89693693473E+01 0.87213526983E+01 0.85026179056E+01 0.83457116181E+01 0.82572696325E+01
 0.82221001383E+01 0.82224996980E+01 0.82573299167E+01 0.83436491690E+01 0.84987494944E+01
 0.87183313889E+01 0.89695298459E+01 0.92226887839E+01 0.95571384893E+01 0.99392182109E+01
 0.10200602403E+02 0.10199826917E+02 0.99367707938E+01 0.95534444105E+01 0.92196300668E+01
 0.10055441992E+02 0.92781156980E+01 0.87767483701E+01 0.83457115435E+01 0.80327426646E+01
 0.78548346265E+01 0.77987031626E+01 0.78541389720E+01 0.80310254741E+01 0.83437785947E+01
 0.87767444658E+01 0.92813163259E+01 0.10060239562E+02 0.11290796507E+02 0.12737036359E+02
 0.13914372098E+02 0.14368534193E+02 0.13915681741E+02 0.12737039273E+02 0.11287668229E+02
 0.14101681521E+02 0.11341975819E+02 0.96651588293E+01 0.88372672693E+01 0.82572633869E+01
 0.78548352408E+01 0.76572088973E+01 0.76567852360E+01 0.78540759216E+01 0.82573962920E+01
 0.88393075810E+01 0.96687385138E+01 0.11345014586E+02 0.14101747892E+02 0.17494085594E+02
 0.20610346731E+02 0.22477862369E+02 0.22479942542E+02 0.20614885058E+02 0.17497508208E+02
 0.23648728812E+02 0.17532590004E+02 0.12831114147E+02 0.10088414036E+02 0.88876460594E+01
 0.82221023958E+01 0.77987080313E+01 0.76567842717E+01 0.77984487330E+01 0.82227318474E+01
 0.88896219908E+01 0.10090323401E+02 0.12830835852E+02 0.17529471987E+02 0.23644211926E+02
 0.29838552711E+02 0.34463700628E+02 0.36177763671E+02 0.34465703987E+02 0.29842386866E+02
 0.39983132138E+02 0.29841596109E+02 0.20661217007E+02 0.14031117916E+02 0.10372436648E+02
 0.89101158327E+01 0.82225029667E+01 0.78541361452E+01 0.78540724805E+01 0.82227328585E+01
 0.89108946369E+01 0.10372590008E+02 0.14029061791E+02 0.20657415987E+02 0.29838924944E+02
 0.39983906960E+02 0.48766346416E+02 0.53877644361E+02 0.53875965595E+02 0.48763298445E+02
 0.62603430778E+02 0.48723942171E+02 0.34443861635E+02 0.22525076149E+02 0.14490205684E+02
 0.10373198794E+02 0.88896193613E+01 0.82573264374E+01 0.80310237923E+01 0.82573990582E+01
 0.88896241184E+01 0.10372589319E+02 0.14488505499E+02 0.22523083445E+02 0.34443864849E+02
 0.48727770120E+02 0.62609951120E+02 0.72789766047E+02 0.76536214343E+02 0.72784627489E+02
 0.88945054997E+02 0.72724818525E+02 0.53798779994E+02 0.36144046551E+02 0.22523016778E+02
 0.14029820692E+02 0.10090834982E+02 0.88392635892E+01 0.83436521731E+01 0.83437816735E+01
 0.88393077208E+01 0.10090321400E+02 0.14029060665E+02 0.22523083443E+02 0.36145729240E+02
 0.53801735620E+02 0.72727867448E+02 0.88947147729E+02 0.98374707736E+02 0.98373992510E+02
 0.11438637024E+03 0.98322596948E+02 0.76448356577E+02 0.53800458969E+02 0.34441888334E+02
 0.20656716516E+02 0.12831114147E+02 0.96688341244E+01 0.87764939405E+01 0.84987501342E+01
 0.87767409579E+01 0.96687361130E+01 0.12830836947E+02 0.20657416546E+02 0.34443865404E+02
 0.53801736637E+02 0.76446345508E+02 0.98317466613E+02 0.11438185788E+03 0.12031361011E+03
 0.13309540941E+03 0.12029000533E+03 0.98323290330E+02 0.72729922860E+02 0.48726987135E+02
 0.29837788999E+02 0.17529183464E+02 0.11345083834E+02 0.92811606623E+01 0.87181783082E+01
 0.87183283928E+01 0.92813157127E+01 0.11345018588E+02 0.17529473505E+02 0.29838923101E+02
 0.48727771613E+02 0.72727867051E+02 0.98317464409E+02 0.12028318527E+03 0.13309234883E+03
 0.11606730889E+03 0.11033690058E+03 0.94807391753E+02 0.73655062235E+02 0.51757718573E+02
 0.33067082076E+02 0.19808488435E+02 0.12341180593E+02 0.93646588111E+01 0.85156156847E+01
 0.82445526122E+01 0.85156475575E+01 0.93646900150E+01 0.12341186723E+02 0.19808481154E+02
 0.33067089142E+02 0.51757745105E+02 0.73655085422E+02 0.94807393471E+02 0.11033689096E+03
 0.11033932229E+03 0.11033689662E+03 0.99721475814E+02 0.81474962872E+02 0.60181257714E+02
 0.40256353099E+02 0.24749343487E+02 0.14906972237E+02 0.10203455460E+02 0.87096581962E+01
 0.81995135925E+01 0.81993851812E+01 0.87095349482E+01 0.10203562267E+02 0.14906853079E+02
 0.24748555883E+02 0.40255789216E+02 0.60182889441E+02 0.81479564251E+02 0.99726874051E+02
 0.94810988988E+02 0.99721832764E+02 0.94807392960E+02 0.81474967113E+02 0.63284826089E+02
 0.44457056779E+02 0.28475045449E+02 0.17313951190E+02 0.11227010527E+02 0.89156330309E+01
 0.81835036647E+01 0.79294592858E+01 0.81832168562E+01 0.89156423816E+01 0.11227266115E+02
 0.17313484892E+02 0.28473506621E+02 0.44455980300E+02 0.63286340894E+02 0.81479012515E+02
 0.73653450679E+02 0.81474508732E+02 0.81475049312E+02 0.73655070438E+02 0.60181255653E+02
 0.44457052612E+02 0.29861147859E+02 0.18771429372E+02 0.12081294060E+02 0.91495077453E+01
 0.81866924172E+01 0.77338577520E+01 0.77337131777E+01 0.81865704881E+01 0.91498490235E+01
 0.12081863312E+02 0.18771330676E+02 0.29859731014E+02 0.44454631981E+02 0.60178823372E+02
 0.51752605969E+02 0.60191518052E+02 0.63299368070E+02 0.60195556885E+02 0.51757718658E+02
 0.40256344927E+02 0.28475048633E+02 0.18771433254E+02 0.12414142083E+02 0.93143430665E+01
 0.81959893375E+01 0.76160343238E+01 0.74121488316E+01 0.76160019391E+01 0.81959963082E+01
 0.93147910489E+01 0.12415424326E+02 0.18772965419E+02 0.28475050242E+02 0.40253357891E+02
 0.33066517656E+02 0.40300283543E+02 0.44518073147E+02 0.44519417080E+02 0.40302704575E+02
 0.33067078049E+02 0.24749344859E+02 0.17313958932E+02 0.12081289727E+02 0.93143396264E+01
 0.82004980829E+01 0.75633627707E+01 0.72282447025E+01 0.72283484354E+01 0.75632861068E+01
 0.81999441600E+01 0.93142195628E+01 0.12082926568E+02 0.17317039441E+02 0.24751558695E+02
 0.19812076671E+02 0.24837471874E+02 0.28609098779E+02 0.30008457572E+02 0.28607579095E+02
 0.24834491218E+02 0.19808485312E+02 0.14906976357E+02 0.11227007705E+02 0.91495008031E+01
 0.81959947576E+01 0.75633656608E+01 0.71696136380E+01 0.70392744557E+01 0.71698848320E+01
 0.75629338999E+01 0.81944526877E+01 0.91479950013E+01 0.11227266115E+02 0.14909503684E+02
 0.12341081098E+02 0.15023503825E+02 0.17513936978E+02 0.19011964893E+02 0.19010348902E+02
 0.17510415555E+02 0.15020864165E+02 0.12341177846E+02 0.10203457935E+02 0.89156291195E+01
 0.81866965257E+01 0.76160401335E+01 0.72282382324E+01 0.70392721015E+01 0.70395993600E+01
 0.72288142965E+01 0.76158963141E+01 0.81850413702E+01 0.89127649444E+01 0.10201025316E+02
 0.93608158946E+01 0.10325365824E+02 0.11458065738E+02 0.12384367007E+02 0.12741403878E+02
 0.12383312090E+02 0.11458064688E+02 0.10327882209E+02 0.93646632490E+01 0.87096603387E+01
 0.81835016040E+01 0.77338609962E+01 0.74121435469E+01 0.72283438575E+01 0.71698922419E+01
 0.72288161886E+01 0.74134138480E+01 0.77353479206E+01 0.81834954602E+01 0.87071036224E+01
 0.85155015187E+01 0.88300961169E+01 0.91497267357E+01 0.94737307196E+01 0.96885558649E+01
 0.96891165168E+01 0.94755643757E+01 0.91525921445E+01 0.88325191688E+01 0.85156209772E+01
 0.81995083195E+01 0.79294575128E+01 0.77337149574E+01 0.76159997197E+01 0.75632924204E+01
 0.75629373234E+01 0.76158882850E+01 0.77353464562E+01 0.79325883869E+01 0.82019625458E+01
 0.82481481286E+01 0.83227068720E+01 0.84172775105E+01 0.85136912684E+01 0.85872534832E+01
 0.86155204923E+01 0.85887705604E+01 0.85152092875E+01 0.84170267678E+01 0.83201652917E+01
 0.82445506163E+01 0.81993809043E+01 0.81832230000E+01 0.81865722770E+01 0.81959947576E+01
 0.81999452203E+01 0.81944457171E+01 0.81850390506E+01 0.81835036647E+01 0.82019635419E+01
 0.85154936006E+01 0.83227063999E+01 0.81650620968E+01 0.80642567098E+01 0.80175188713E+01
 0.80041343480E+01 0.80044776115E+01 0.80176139818E+01 0.80626377374E+01 0.81619785221E+01
 0.83203059994E+01 0.85156449319E+01 0.87095382546E+01 0.89156455785E+01 0.91498421664E+01
 0.93147890284E+01 0.93142209824E+01 0.91479950864E+01 0.89127720528E+01 0.87071047863E+01
 0.93608091751E+01 0.88300961532E+01 0.84172846906E+01 0.80642566297E+01 0.78180731679E+01
 0.76835540504E+01 0.76423077293E+01 0.76830952123E+01 0.78168097751E+01 0.80627598215E+01
 0.84172808873E+01 0.88326652076E+01 0.93646877335E+01 0.10203563560E+02 0.11227261825E+02
 0.12081861213E+02 0.12415431584E+02 0.12082928803E+02 0.11227264646E+02 0.10201024134E+02
 0.12341082793E+02 0.10325367989E+02 0.91497325947E+01 0.85136900702E+01 0.80175128161E+01
 0.76835546468E+01 0.75230009749E+01 0.75226883765E+01 0.76829974123E+01 0.80176382659E+01
 0.85152884640E+01 0.91525439057E+01 0.10327784409E+02 0.12341185671E+02 0.14906854878E+02
 0.17313485246E+02 0.18771335454E+02 0.18772966315E+02 0.17317032053E+02 0.14909501363E+02
 0.19812083951E+02 0.15023506099E+02 0.11458063749E+02 0.94737277911E+01 0.85872488588E+01
 0.80041365342E+01 0.76423124456E+01 0.75226874309E+01 0.76420536098E+01 0.80045712713E+01
 0.85887705604E+01 0.94752025929E+01 0.11457786084E+02 0.15020974284E+02 0.19808485312E+02
 0.24748557629E+02 0.28473505013E+02 0.29859728860E+02 0.28475045449E+02 0.24751559069E+02
 0.33066522081E+02 0.24837470357E+02 0.17513930155E+02 0.12384364955E+02 0.96885581231E+01
 0.86155238526E+01 0.80044807857E+01 0.76830924515E+01 0.76829940551E+01 0.80045722592E+01
 0.86160991112E+01 0.96887025603E+01 0.12382752095E+02 0.17510869925E+02 0.24835270493E+02
 0.33067089540E+02 0.40255784932E+02 0.44455977864E+02 0.44454633712E+02 0.40253361778E+02
 0.51752603884E+02 0.40300278295E+02 0.28609095138E+02 0.19011967324E+02 0.12741409823E+02
 0.96891181184E+01 0.85887680313E+01 0.80176106162E+01 0.78168081149E+01 0.80176409555E+01
 0.85887726557E+01 0.96887019037E+01 0.12740163309E+02 0.19010454527E+02 0.28609098267E+02
 0.40303276062E+02 0.51757743106E+02 0.60182890396E+02 0.63286345262E+02 0.60178826388E+02
 0.73653446234E+02 0.60191514636E+02 0.44518075719E+02 0.30008463624E+02 0.19010351323E+02
 0.12383308950E+02 0.94755595358E+01 0.85152082710E+01 0.80626406289E+01 0.80627627931E+01
 0.85152886457E+01 0.94752006816E+01 0.12382751006E+02 0.19010454517E+02 0.30009854294E+02
 0.44520461594E+02 0.60193940885E+02 0.73655089180E+02 0.81479566176E+02 0.81479010199E+02
 0.94810987269E+02 0.81474512033E+02 0.63299372390E+02 0.44519420621E+02 0.28607575965E+02
 0.17510409257E+02 0.11458063749E+02 0.91525956981E+01 0.84170305711E+01 0.81619791093E+01
 0.84172775105E+01 0.91525416002E+01 0.11457787134E+02 0.17510870450E+02 0.28609098779E+02
 0.44520462565E+02 0.63297824449E+02 0.81470453665E+02 0.94807392960E+02 0.99726868043E+02
 0.11033932303E+03 0.99721840327E+02 0.81475050489E+02 0.60195553084E+02 0.40302700743E+02
 0.24834487914E+02 0.15020867908E+02 0.10327888237E+02 0.88325186007E+01 0.83201618684E+01
 0.83203030481E+01 0.88326646032E+01 0.10327788271E+02 0.15020975753E+02 0.24835268705E+02
 0.40303277476E+02 0.60193940500E+02 0.81470451542E+02 0.99716427255E+02 0.11033688774E+03
 0.84941008625E+02 0.80728973604E+02 0.69302640592E+02 0.53740659089E+02 0.37720108983E+02
 0.24284103341E+02 0.15112744752E+02 0.10302627167E+02 0.85512527464E+01 0.78975062666E+01
 0.76632856542E+01 0.78975336383E+01 0.85512803451E+01 0.10302633631E+02 0.15112737912E+02
 0.24284105533E+02 0.37720126280E+02 0.53740675524E+02 0.69302642206E+02 0.80728966940E+02
 0.80730588221E+02 0.80728969846E+02 0.72908158107E+02 0.59460205078E+02 0.43813764660E+02
 0.29346093030E+02 0.18401818798E+02 0.11830679465E+02 0.89668365846E+01 0.80275654233E+01
 0.75839388627E+01 0.75838254041E+01 0.80274564506E+01 0.89669765795E+01 0.11830768073E+02
 0.18401457531E+02 0.29345779720E+02 0.43814820754E+02 0.59463224829E+02 0.72911741195E+02
 0.69305046403E+02 0.72931216702E+02 0.69302641714E+02 0.59460209067E+02 0.46065903993E+02
 0.32330649323E+02 0.20932549377E+02 0.13324302702E+02 0.94920979049E+01 0.81365785061E+01
 0.75374656017E+01 0.73234465826E+01 0.75371959645E+01 0.81365410146E+01 0.94923399846E+01
 0.13324124406E+02 0.20931595442E+02 0.32329898409E+02 0.46066843034E+02 0.59462875258E+02
 0.53739616584E+02 0.59519717159E+02 0.59520059934E+02 0.53740666804E+02 0.43813762700E+02
 0.32330645412E+02 0.21882491639E+02 0.14248857151E+02 0.99516712164E+01 0.82267431347E+01
 0.75164261032E+01 0.71372722281E+01 0.71371457212E+01 0.75162741224E+01 0.82268953356E+01
 0.99519850484E+01 0.14248725546E+02 0.21881479682E+02 0.32328986496E+02 0.43812140533E+02
 0.37716763647E+02 0.43918418594E+02 0.46210381259E+02 0.43921080932E+02 0.37720109070E+02
 0.29346085366E+02 0.20932552424E+02 0.14248860813E+02 0.10135086395E+02 0.82892462108E+01
 0.75099462288E+01 0.70250053052E+01 0.68597524685E+01 0.70250237351E+01 0.75099527399E+01
 0.82894528989E+01 0.10135797331E+02 0.14249784485E+02 0.20932553878E+02 0.29344158439E+02
 0.24283789562E+02 0.29500481858E+02 0.32571516136E+02 0.32572424631E+02 0.29502095850E+02
 0.24284099582E+02 0.18401820126E+02 0.13324310003E+02 0.99516671210E+01 0.82892429667E+01
 0.75089507966E+01 0.69743154517E+01 0.67039323772E+01 0.67040694102E+01 0.69743957569E+01
 0.75086491800E+01 0.82891369279E+01 0.99527280172E+01 0.13326411229E+02 0.18403394783E+02
 0.15115142109E+02 0.18596782816E+02 0.21261036176E+02 0.22258224253E+02 0.21260092639E+02
 0.18594859586E+02 0.15112741802E+02 0.11830683342E+02 0.94920952361E+01 0.82267365834E+01
 0.75099512849E+01 0.69743181592E+01 0.66546295265E+01 0.65508749964E+01 0.66548845729E+01
 0.69741241594E+01 0.75089943037E+01 0.82257920222E+01 0.94923399846E+01 0.11832433727E+02
 0.10302494826E+02 0.12041626258E+02 0.13706193127E+02 0.14725054472E+02 0.14724007819E+02
 0.13703926960E+02 0.12039964633E+02 0.10302624534E+02 0.89668389109E+01 0.81365748161E+01
 0.75164299200E+01 0.70250107520E+01 0.67039263433E+01 0.65508728025E+01 0.65510581753E+01
 0.67042465758E+01 0.70248849297E+01 0.75153539880E+01 0.81347089677E+01 0.89652164929E+01
 0.85486141773E+01 0.91715751725E+01 0.98840900783E+01 0.10473703721E+02 0.10703116161E+02
 0.10472967693E+02 0.98840891043E+01 0.91733176134E+01 0.85512569074E+01 0.80275674511E+01
 0.75374636600E+01 0.71372752695E+01 0.68597475456E+01 0.67040651487E+01 0.66548914970E+01
 0.67042483482E+01 0.68604489341E+01 0.71382046611E+01 0.75374579351E+01 0.80258351695E+01
 0.78974057652E+01 0.82224310582E+01 0.85145030690E+01 0.87496104431E+01 0.88926344568E+01
 0.88929446814E+01 0.87507038283E+01 0.85163305592E+01 0.82240469575E+01 0.78975112814E+01
 0.75839339703E+01 0.73234449280E+01 0.71371473964E+01 0.70250216843E+01 0.69744016588E+01
 0.69741273538E+01 0.70248774321E+01 0.71382032948E+01 0.73255453081E+01 0.75855745583E+01
 0.76656898514E+01 0.77758994669E+01 0.79039330053E+01 0.80272429294E+01 0.81177971390E+01
 0.81515891915E+01 0.81187381804E+01 0.80281585984E+01 0.79036954753E+01 0.77741790577E+01
 0.76632838891E+01 0.75838214180E+01 0.75372016894E+01 0.75162757938E+01 0.75099512849E+01
 0.75086501464E+01 0.75089877926E+01 0.75153518426E+01 0.75374656017E+01 0.75855754646E+01
 0.78973983116E+01 0.77758990567E+01 0.76869665344E+01 0.76416905655E+01 0.76315668214E+01
 0.76355367776E+01 0.76358005169E+01 0.76316950186E+01 0.76406410761E+01 0.76849019634E+01
 0.77743023335E+01 0.78975311995E+01 0.80274594961E+01 0.81365439657E+01 0.82268889120E+01
 0.82894509826E+01 0.82891382557E+01 0.82257921499E+01 0.81347156088E+01 0.80258361871E+01
 0.85486078451E+01 0.82224311746E+01 0.79039398230E+01 0.76416904710E+01 0.74657157732E+01
 0.73730915937E+01 0.73454930043E+01 0.73729159792E+01 0.74650150252E+01 0.76407490311E+01
 0.79039361794E+01 0.82241748306E+01 0.85512781740E+01 0.89669777164E+01 0.94923359401E+01
 0.99519830920E+01 0.10135804128E+02 0.99527301563E+01 0.94923386089E+01 0.89652153035E+01
 0.10302496406E+02 0.91715772857E+01 0.85145086493E+01 0.80272417539E+01 0.76315610528E+01
 0.73730921724E+01 0.72511511778E+01 0.72509764125E+01 0.73727852186E+01 0.76316722131E+01
 0.80282740382E+01 0.85163334467E+01 0.91731868528E+01 0.10302632579E+02 0.11830769729E+02
 0.13324124792E+02 0.14248730053E+02 0.14249785331E+02 0.13326404315E+02 0.11832431507E+02
 0.15115148949E+02 0.12041628426E+02 0.98840882278E+01 0.87496076429E+01 0.81177927191E+01
 0.76355388757E+01 0.73454975093E+01 0.72509754920E+01 0.73452523003E+01 0.76357374870E+01
 0.81187381804E+01 0.87505310300E+01 0.98838271337E+01 0.12039870753E+02 0.15112741802E+02
 0.18401459229E+02 0.20931593988E+02 0.21881477625E+02 0.20932549377E+02 0.18403395154E+02
 0.24283793728E+02 0.18596781365E+02 0.13706186686E+02 0.10473701770E+02 0.88926365709E+01
 0.81515923814E+01 0.76358035632E+01 0.73729133201E+01 0.73727819809E+01 0.76357384353E+01
 0.81519141251E+01 0.88927629417E+01 0.10472658080E+02 0.13704097767E+02 0.18595213573E+02
 0.24284105940E+02 0.29345775753E+02 0.32329896085E+02 0.32328988083E+02 0.29344162136E+02
 0.37716761699E+02 0.29500476882E+02 0.21261032735E+02 0.14725056767E+02 0.10703121781E+02
 0.88929461837E+01 0.81187358054E+01 0.76316918134E+01 0.74650133909E+01 0.76316747765E+01
 0.81187402253E+01 0.88927623299E+01 0.10702435046E+02 0.14724146624E+02 0.21261035726E+02
 0.29502411821E+02 0.37720124420E+02 0.43814821640E+02 0.46066847079E+02 0.43812143378E+02
 0.53739612413E+02 0.43918415377E+02 0.32571518574E+02 0.22258229969E+02 0.14724010090E+02
 0.10472964707E+02 0.87506992445E+01 0.80281576697E+01 0.76406437946E+01 0.76407518441E+01
 0.80282742850E+01 0.87505292464E+01 0.10472657045E+02 0.14724146601E+02 0.22259226556E+02
 0.32573155337E+02 0.43920034256E+02 0.53740679067E+02 0.59463226596E+02 0.59462873035E+02
 0.69305044789E+02 0.59519720308E+02 0.46210385368E+02 0.32572427981E+02 0.21260089648E+02
 0.13703920990E+02 0.98840882278E+01 0.85163339720E+01 0.79036991189E+01 0.76849024960E+01
 0.79039330053E+01 0.85163312793E+01 0.98838281078E+01 0.13704098238E+02 0.21261036176E+02
 0.32573156249E+02 0.46209422823E+02 0.59517044911E+02 0.69302641714E+02 0.72911735472E+02
 0.80730588917E+02 0.72931223884E+02 0.59520061078E+02 0.43921077367E+02 0.29502092195E+02
 0.18594856439E+02 0.12039968188E+02 0.91733233594E+01 0.82240464877E+01 0.77741757885E+01
 0.77742994745E+01 0.82241742445E+01 0.91731904856E+01 0.12039872139E+02 0.18595211876E+02
 0.29502413142E+02 0.43920033907E+02 0.59517042906E+02 0.72927630537E+02 0.80728963878E+02
 0.54815283207E+02 0.52075472296E+02 0.44659090385E+02 0.34632316561E+02 0.24499744964E+02
 0.16326876846E+02 0.11138448145E+02 0.87121513387E+01 0.77945727210E+01 0.72630228131E+01
 0.70786948811E+01 0.72630410066E+01 0.77945900989E+01 0.87121535225E+01 0.11138441824E+02
 0.16326878523E+02 0.24499758465E+02 0.34632329369E+02 0.44659091877E+02 0.52075467417E+02
 0.52076324852E+02 0.52075468809E+02 0.46981799233E+02 0.38266250739E+02 0.28259461063E+02
 0.19272905365E+02 0.12847605987E+02 0.93491082138E+01 0.79717916005E+01 0.73144735332E+01