    2    2    1    1
  0.8884498E+01  0.2260100E-09  0.2260100E-09  0.4016770E-09  0.5000000E-15
  1.000000000000000E-004
  CAR 
 unknown system                          
     16     96     40
 
  0.0000000E+00  0.0000000E+00  0.0000000E+00  0.7513148E-03
    1       -1.123704   1.000000
    2        2.753055   1.000000
    3        5.827314   1.000000
    4        6.648093   1.000000
    5        6.648125   1.000000
    6        7.018736   1.000000
    7        7.018760   1.000000
    8        7.655774   1.000000
    9        8.233780   1.019597
   10        8.233792   1.019600
   11        9.486169  -0.000000
   12        9.486182  -0.000000
   13       17.122304   0.000000
   14       33.243026   0.000000
   15       33.329077   0.000000
   16       36.614861   0.000000
   17       40.273508   0.000000
   18       40.273523   0.000000
   19       40.915886   0.000000
   20       40.915987   0.000000
   21       41.390598   0.000000
   22       43.148750   0.000000
   23       43.148762   0.000000
   24       44.218507   0.000000
   25       47.473774   0.000000
   26       47.473783   0.000000
   27       48.608418   0.000000
   28       52.413802   0.000000
   29       52.413926   0.000000
   30       54.005970   0.000000
   31       54.006063   0.000000
   32       56.896566   0.000000
   33       64.442735   0.000000
   34       64.482729   0.000000
   35       65.078280   0.000000
   36       65.078594   0.000000
   37       66.174436   0.000000
   38       68.676531   0.000000
   39       68.676679   0.000000
   40       71.089190   0.000000
 
  0.9090909E-01  0.8595048E-17  0.0000000E+00  0.4507889E-02
    1       -0.752493   1.000000
    2        3.038642   1.000000
    3        5.858055   1.000000
    4        6.556555   1.000000
    5        6.704130   1.000000
    6        6.874964   1.000000
    7        6.882744   1.000000
    8        7.234731   1.000000
    9        8.038026   1.000564
   10        8.095428   1.002047
   11        9.525664  -0.000000
   12       10.721127  -0.000000
   13       17.139272   0.000000
   14       32.352179   0.000000
   15       33.642142   0.000000
   16       35.284107   0.000000
   17       37.154402   0.000000
   18       38.792735   0.000000
   19       39.118771   0.000000
   20       41.173372   0.000000
   21       42.631018   0.000000
   22       43.986895   0.000000
   23       44.104260   0.000000
   24       44.743398   0.000000
   25       48.651418   0.000000
   26       48.891487   0.000000
   27       49.595071   0.000000
   28       49.848028   0.000000
   29       52.969871   0.000000
   30       55.647909   0.000000
   31       56.441342   0.000000
   32       58.527959   0.000000
   33       62.867626   0.000000
   34       64.133860   0.000000
   35       64.168272   0.000000
   36       64.791892   0.000000
   37       65.404792   0.000000
   38       69.107234   0.000000
   39       70.922686   0.000000
   40       71.084448   0.000000
 
  0.1818182E+00  0.5218086E-16  0.0000000E+00  0.4507889E-02
    1        0.285187   1.000000
    2        3.693601   1.000000
    3        5.451516   1.000000
    4        5.678802   1.000000
    5        6.322322   1.000000
    6        7.014642   1.000000
    7        7.541229   1.000000
    8        7.580471   1.000000
    9        7.770745   1.000000
   10        7.844105   1.000002
   11        9.590550  -0.000000
   12       12.759748  -0.000000
   13       17.222511   0.000000
   14       28.800777   0.000000
   15       33.965908   0.000000
   16       34.061055   0.000000
   17       34.063839   0.000000
   18       34.829797   0.000000
   19       39.905956   0.000000
   20       40.693291   0.000000
   21       41.408066   0.000000
   22       41.828645   0.000000
   23       45.270982   0.000000
   24       46.412147   0.000000
   25       49.337747   0.000000
   26       50.038255   0.000000
   27       51.423115   0.000000
   28       53.808699   0.000000
   29       56.444164   0.000000
   30       58.178702   0.000000
   31       59.191229   0.000000
   32       60.902260   0.000000
   33       61.699558   0.000000
   34       62.517059   0.000000
   35       62.706968   0.000000
   36       63.531930   0.000000
   37       66.691656   0.000000
   38       69.845852   0.000000
   39       71.047160   0.000000
   40       71.232113   0.000000
 
  0.2727273E+00  0.2557543E-17  0.0000000E+00  0.4507889E-02
    1        1.704581   1.000000
    2        3.927683   1.000000
    3        4.455970   1.000000
    4        5.678757   1.000000
    5        6.131694   1.000000
    6        7.011007   1.000000
    7        7.402685   1.000000
    8        7.943912   1.000046
    9        8.475604   0.851469
   10        8.697703   0.061443
   11        9.620993  -0.000000
   12       15.038966   0.000000
   13       17.411538   0.000000
   14       24.676076   0.000000
   15       30.348453   0.000000
   16       31.391296   0.000000
   17       32.407278   0.000000
   18       34.807508   0.000000
   19       38.306007   0.000000
   20       41.041453   0.000000
   21       41.214939   0.000000
   22       41.688527   0.000000
   23       42.770156   0.000000
   24       46.317482   0.000000
   25       52.892502   0.000000
   26       54.289785   0.000000
   27       55.134006   0.000000
   28       56.453262   0.000000
   29       57.277947   0.000000
   30       58.726154   0.000000
   31       60.260887   0.000000
   32       61.924362   0.000000
   33       62.205792   0.000000
   34       62.431271   0.000000
   35       63.571800   0.000000
   36       66.646867   0.000000
   37       66.830606   0.000000
   38       70.541528   0.000000
   39       70.858546   0.000000
   40       71.121786   0.000000
 
  0.3636364E+00  0.2232317E-16  0.0000000E+00  0.4507889E-02
    1        2.827693   1.000000
    2        3.581927   1.000000
    3        3.781975   1.000000
    4        5.915576   1.000000
    5        6.512743   1.000000
    6        6.671715   1.000000
    7        7.099225   1.000000
    8        9.422824  -0.000000
    9        9.455177  -0.000000
   10        9.561887  -0.000000
   11        9.621944  -0.000000
   12       17.239300   0.000000
   13       17.445786   0.000000
   14       21.656399   0.000000
   15       26.925229   0.000000
   16       29.341321   0.000000
   17       29.595931   0.000000
   18       33.973337   0.000000
   19       37.184017   0.000000
   20       40.535408   0.000000
   21       40.844445   0.000000
   22       42.643809   0.000000
   23       43.094085   0.000000
   24       46.359550   0.000000
   25       53.955159   0.000000
   26       55.558514   0.000000
   27       56.305416   0.000000
   28       59.564437   0.000000
   29       59.715832   0.000000
   30       59.781188   0.000000
   31       61.359019   0.000000
   32       63.141087   0.000000
   33       63.246404   0.000000
   34       64.127277   0.000000
   35       65.058477   0.000000
   36       66.682377   0.000000
   37       70.391237   0.000000
   38       70.819992   0.000000
   39       70.987808   0.000000
   40       71.246519   0.000000
 
  0.4545455E+00  0.5654320E-16  0.0000000E+00  0.4507889E-02
    1        3.079157   1.000000
    2        3.392848   1.000000
    3        3.444014   1.000000
    4        6.226260   1.000000
    5        6.595654   1.000000
    6        6.929098   1.000000
    7        6.958653   1.000000
    8        9.612510  -0.000000
    9       10.015983  -0.000000
   10       10.144584  -0.000000
   11       11.424333  -0.000000
   12       15.282452   0.000000
   13       19.695791   0.000000
   14       21.560217   0.000000
   15       24.186289   0.000000
   16       26.822647   0.000000
   17       28.183575   0.000000
   18       33.311994   0.000000
   19       36.807657   0.000000
   20       39.272408   0.000000
   21       40.664022   0.000000
   22       43.652191   0.000000
   23       45.446378   0.000000
   24       45.997932   0.000000
   25       50.612976   0.000000
   26       56.498308   0.000000
   27       57.280826   0.000000
   28       60.733899   0.000000
   29       61.172801   0.000000
   30       62.334658   0.000000
   31       63.459526   0.000000
   32       63.720259   0.000000
   33       64.126932   0.000000
   34       66.312592   0.000000
   35       66.939403   0.000000
   36       69.284528   0.000000
   37       69.473579   0.000000
   38       69.772335   0.000000
   39       72.441508   0.000000
   40       72.804690   0.000000
 
  0.9090909E-01  0.9090909E-01  0.0000000E+00  0.4507889E-02
    1       -0.043949   1.000000
    2        3.535591   1.000000
    3        5.707997   1.000000
    4        5.784722   1.000000
    5        6.604966   1.000000
    6        6.613877   1.000000
    7        7.366256   1.000000
    8        7.555043   1.000000
    9        7.709299   1.000000
   10        8.043366   1.000641
   11        9.535167  -0.000000
   12       12.198875  -0.000000
   13       17.195600   0.000000
   14       30.475663   0.000000
   15       32.162886   0.000000
   16       34.248489   0.000000
   17       35.784436   0.000000
   18       37.870770   0.000000
   19       38.011122   0.000000
   20       39.788641   0.000000
   21       40.841281   0.000000
   22       45.600448   0.000000
   23       46.210181   0.000000
   24       47.151136   0.000000
   25       47.548280   0.000000
   26       48.255839   0.000000
   27       48.470487   0.000000
   28       54.282254   0.000000
   29       56.617587   0.000000
   30       57.413566   0.000000
   31       57.534135   0.000000
   32       60.554915   0.000000
   33       61.294039   0.000000
   34       63.137263   0.000000
   35       63.579026   0.000000
   36       64.164136   0.000000
   37       65.264806   0.000000
   38       70.235334   0.000000
   39       70.710635   0.000000
   40       71.898569   0.000000
 
  0.1818182E+00  0.9090909E-01  0.0000000E+00  0.9015778E-02
    1        1.222327   1.000000
    2        4.135224   1.000000
    3        4.820383   1.000000
    4        5.371792   1.000000
    5        6.238477   1.000000
    6        7.008177   1.000000
    7        7.150604   1.000000
    8        7.728714   1.000000
    9        8.226834   1.018075
   10        8.595442   0.389253
   11        9.526160  -0.000000
   12       14.247117   0.000000
   13       17.381597   0.000000
   14       26.781088   0.000000
   15       29.610157   0.000000
   16       32.179260   0.000000
   17       34.364955   0.000000
   18       35.471136   0.000000
   19       38.742259   0.000000
   20       38.805851   0.000000
   21       40.185881   0.000000
   22       45.003846   0.000000
   23       45.173148   0.000000
   24       46.810120   0.000000
   25       49.786688   0.000000
   26       50.444739   0.000000
   27       52.717696   0.000000
   28       57.055704   0.000000
   29       58.745827   0.000000
   30       59.006813   0.000000
   31       59.813522   0.000000
   32       61.495889   0.000000
   33       61.657012   0.000000
   34       62.676521   0.000000
   35       63.978135   0.000000
   36       63.990720   0.000000
   37       66.071537   0.000000
   38       70.286053   0.000000
   39       70.834142   0.000000
   40       72.232272   0.000000
 
  0.2727273E+00  0.9090909E-01  0.0000000E+00  0.9015778E-02
    1        2.615526   1.000000
    2        3.979539   1.000000
    3        4.082864   1.000000
    4        5.520934   1.000000
    5        6.351398   1.000000
    6        6.559125   1.000000
    7        7.281895   1.000000
    8        8.108819   1.002689
    9        9.171389  -0.000087
   10        9.508298  -0.000000
   11        9.751315  -0.000000
   12       16.563374   0.000000
   13       17.689374   0.000000
   14       22.951400   0.000000
   15       27.765599   0.000000
   16       28.708306   0.000000
   17       32.138626   0.000000
   18       33.292912   0.000000
   19       38.202685   0.000000
   20       39.497006   0.000000
   21       40.184226   0.000000
   22       44.380866   0.000000
   23       44.538859   0.000000
   24       47.685406   0.000000
   25       51.895164   0.000000
   26       54.388287   0.000000
   27       55.818891   0.000000
   28       56.111285   0.000000
   29       58.157619   0.000000
   30       60.401465   0.000000
   31       60.752784   0.000000
   32       63.053478   0.000000
   33       63.794925   0.000000
   34       64.401184   0.000000
   35       64.487013   0.000000
   36       66.132372   0.000000
   37       69.626765   0.000000
   38       70.070069   0.000000
   39       70.493458   0.000000
   40       72.534012   0.000000
 
  0.3636364E+00  0.9090909E-01  0.0000000E+00  0.9015778E-02
    1        3.298444   1.000000
    2        3.633562   1.000000
    3        3.646774   1.000000
    4        6.070344   1.000000
    5        6.278675   1.000000
    6        6.815029   1.000000
    7        6.901436   1.000000
    8        9.238188  -0.000012
    9        9.484285  -0.000000
   10        9.823143  -0.000000
   11       11.184403  -0.000000
   12       16.799712   0.000000
   13       18.972205   0.000000
   14       21.379632   0.000000
   15       25.606439   0.000000
   16       26.286774   0.000000
   17       28.788034   0.000000
   18       32.322366   0.000000
   19       37.243617   0.000000
   20       38.994110   0.000000
   21       41.594587   0.000000
   22       44.620776   0.000000
   23       45.440767   0.000000
   24       47.072620   0.000000
   25       52.585355   0.000000
   26       54.604668   0.000000
   27       56.390120   0.000000
   28       58.073185   0.000000
   29       60.091230   0.000000
   30       61.293594   0.000000
   31       62.272655   0.000000
   32       63.399924   0.000000
   33       63.853405   0.000000
   34       66.612737   0.000000
   35       67.876223   0.000000
   36       68.046505   0.000000
   37       68.661847   0.000000
   38       71.335050   0.000000
   39       71.671111   0.000000
   40       72.957783   0.000000
 
  0.4545455E+00  0.9090909E-01  0.0000000E+00  0.4507889E-02
    1        3.291604   1.000000
    2        3.483841   1.000000
    3        3.611270   1.000000
    4        6.188853   1.000000
    5        6.553373   1.000000
    6        6.749950   1.000000
    7        6.931347   1.000000
    8        9.473196  -0.000000
    9        9.883163  -0.000000
   10        9.915542  -0.000000
   11       12.546242  -0.000000
   12       15.028922   0.000000
   13       20.595478   0.000000
   14       22.019261   0.000000
   15       23.755885   0.000000
   16       25.386586   0.000000
   17       27.255778   0.000000
   18       31.969228   0.000000
   19       36.828333   0.000000
   20       38.832736   0.000000
   21       41.895179   0.000000
   22       45.332806   0.000000
   23       46.027735   0.000000
   24       46.996828   0.000000
   25       50.438733   0.000000
   26       55.898145   0.000000
   27       56.764950   0.000000
   28       58.640130   0.000000
   29       61.445635   0.000000
   30       61.605593   0.000000
   31       63.744034   0.000000
   32       63.818397   0.000000
   33       64.360193   0.000000
   34       65.699257   0.000000
   35       68.118359   0.000000
   36       70.466029   0.000000
   37       70.478474   0.000000
   38       70.578850   0.000000
   39       70.844669   0.000000
   40       73.907014   0.000000
 
  0.1818182E+00  0.1818182E+00  0.0000000E+00  0.4507889E-02
    1        2.573441   1.000000
    2        4.260576   1.000000
    3        4.639421   1.000000
    4        4.828924   1.000000
    5        6.332501   1.000000
    6        6.463329   1.000000
    7        7.439118   1.000000
    8        7.444257   1.000000
    9        9.141654  -0.000197
   10        9.380062  -0.000000
   11        9.834636  -0.000000
   12       16.288243   0.000000
   13       17.870406   0.000000
   14       24.633919   0.000000
   15       25.648421   0.000000
   16       30.155475   0.000000
   17       32.013407   0.000000
   18       34.624148   0.000000
   19       35.334560   0.000000
   20       39.597989   0.000000
   21       41.727114   0.000000
   22       46.227292   0.000000
   23       46.792607   0.000000
   24       48.514282   0.000000
   25       49.493511   0.000000
   26       51.652345   0.000000
   27       52.833569   0.000000
   28       57.467126   0.000000
   29       59.113908   0.000000
   30       59.567594   0.000000
   31       59.967900   0.000000
   32       63.238974   0.000000
   33       63.283320   0.000000
   34       64.916742   0.000000
   35       65.786353   0.000000
   36       66.997622   0.000000
   37       67.186833   0.000000
   38       69.691782   0.000000
   39       70.302613   0.000000
   40       73.345633   0.000000
 
  0.2727273E+00  0.1818182E+00  0.0000000E+00  0.9015778E-02
    1        3.774035   1.000000
    2        3.890420   1.000000
    3        4.248967   1.000000
    4        5.164419   1.000000
    5        6.150286   1.000000
    6        6.676896   1.000000
    7        6.952440   1.000000
    8        8.143481   1.005180
    9        9.256207  -0.000007
   10        9.739517  -0.000000
   11       11.368757  -0.000000
   12       18.408967   0.000000
   13       18.640157   0.000000
   14       21.658802   0.000000
   15       23.849330   0.000000
   16       27.547170   0.000000
   17       30.231004   0.000000
   18       30.990450   0.000000
   19       34.011562   0.000000
   20       41.884644   0.000000
   21       42.275783   0.000000
   22       46.082028   0.000000
   23       48.078604   0.000000
   24       49.846638   0.000000
   25       50.664346   0.000000
   26       52.635773   0.000000
   27       54.098112   0.000000
   28       55.471500   0.000000
   29       58.614327   0.000000
   30       60.113901   0.000000
   31       62.127763   0.000000
   32       63.284666   0.000000
   33       64.140619   0.000000
   34       66.353272   0.000000
   35       67.825159   0.000000
   36       68.085567   0.000000
   37       69.952623   0.000000
   38       70.750719   0.000000
   39       72.516787   0.000000
   40       74.246693   0.000000
 
  0.3636364E+00  0.1818182E+00  0.0000000E+00  0.9015778E-02
    1        3.716005   1.000000
    2        3.907534   1.000000
    3        4.157541   1.000000
    4        5.816021   1.000000
    5        6.125345   1.000000
    6        6.484171   1.000000
    7        6.998709   1.000000
    8        9.013476  -0.003655
    9        9.185149  -0.000059
   10        9.736253  -0.000000
   11       13.174916  -0.000000
   12       16.581522   0.000000
   13       21.021393   0.000000
   14       21.906391   0.000000
   15       22.928612   0.000000
   16       24.826444   0.000000
   17       27.906270   0.000000
   18       29.508803   0.000000
   19       33.331458   0.000000
   20       42.287020   0.000000
   21       44.018724   0.000000
   22       46.241668   0.000000
   23       47.544832   0.000000
   24       48.786117   0.000000
   25       52.850134   0.000000
   26       53.219095   0.000000
   27       54.878818   0.000000
   28       55.893496   0.000000
   29       59.902624   0.000000
   30       60.681687   0.000000
   31       61.472051   0.000000
   32       63.652992   0.000000
   33       64.001327   0.000000
   34       64.760466   0.000000
   35       68.636748   0.000000
   36       69.880920   0.000000
   37       71.108166   0.000000
   38       72.093327   0.000000
   39       72.596080   0.000000
   40       72.895944   0.000000
 
  0.2727273E+00  0.2727273E+00  0.0000000E+00  0.4507889E-02
    1        3.878632   1.000000
    2        4.454712   1.000000
    3        4.823274   1.000000
    4        4.878332   1.000000
    5        5.962007   1.000000
    6        6.465004   1.000000
    7        7.041659   1.000000
    8        8.462039   0.888650
    9        9.035813  -0.002354
   10        9.691310  -0.000000
   11       13.347876  -0.000000
   12       18.832777   0.000000
   13       19.447595   0.000000
   14       21.072974   0.000000
   15       22.773103   0.000000
   16       26.759650   0.000000
   17       27.190749   0.000000
   18       29.718207   0.000000
   19       30.614852   0.000000
   20       43.593349   0.000000
   21       44.599114   0.000000
   22       48.969246   0.000000
   23       50.051641   0.000000
   24       50.088664   0.000000
   25       50.483049   0.000000
   26       51.025010   0.000000
   27       54.022511   0.000000
   28       56.510520   0.000000
   29       56.708300   0.000000
   30       60.358060   0.000000
   31       60.962626   0.000000
   32       63.758064   0.000000
   33       64.117871   0.000000
   34       64.672840   0.000000
   35       68.867915   0.000000
   36       69.970835   0.000000
   37       70.113413   0.000000
   38       71.351531   0.000000
   39       72.692190   0.000000
   40       74.456550   0.000000
 
  0.3636364E+00  0.2727273E+00  0.0000000E+00  0.4507889E-02
    1        3.910660   1.000000
    2        4.565340   1.000000
    3        4.701002   1.000000
    4        5.277860   1.000000
    5        6.049819   1.000000
    6        6.092274   1.000000
    7        7.212986   1.000000
    8        8.922017  -0.015812
    9        8.951541  -0.010493
   10        9.298749  -0.000002
   11       15.227615   0.000000
   12       16.802243   0.000000
   13       19.061418   0.000000
   14       23.200096   0.000000
   15       23.752724   0.000000
   16       24.673887   0.000000
   17       26.700733   0.000000
   18       27.961297   0.000000
   19       29.989176   0.000000
   20       43.927369   0.000000
   21       47.127221   0.000000
   22       48.257430   0.000000
   23       49.095008   0.000000
   24       49.739198   0.000000
   25       51.205394   0.000000
   26       52.398844   0.000000
   27       55.773766   0.000000
   28       56.139826   0.000000
   29       56.465697   0.000000
   30       59.842709   0.000000
   31       60.758018   0.000000
   32       61.470917   0.000000
   33       64.140021   0.000000
   34       64.283744   0.000000
   35       68.428872   0.000000
   36       70.149230   0.000000
   37       71.711520   0.000000
   38       72.213616   0.000000
   39       72.761517   0.000000
   40       73.408835   0.000000
 
  0.0000000E+00  0.0000000E+00  0.9090909E-01  0.1502630E-02
    1       -1.035301   1.000000
    2        2.731815   1.000000
    3        5.804398   1.000000
    4        6.639342   1.000000
    5        6.639373   1.000000
    6        6.999319   1.000000
    7        6.999343   1.000000
    8        7.425182   1.000000
    9        8.277897   1.029578
   10        8.277909   1.029581
   11        9.475524  -0.000000
   12        9.475537  -0.000000
   13       17.507924   0.000000
   14       32.430149   0.000000
   15       33.676556   0.000000
   16       36.431454   0.000000
   17       40.297487   0.000000
   18       40.297502   0.000000
   19       40.915381   0.000000
   20       40.915478   0.000000
   21       41.860365   0.000000
   22       43.135528   0.000000
   23       43.135540   0.000000
   24       44.510046   0.000000
   25       47.195726   0.000000
   26       47.195737   0.000000
   27       48.869531   0.000000
   28       52.636817   0.000000
   29       52.636938   0.000000
   30       54.366261   0.000000
   31       54.366343   0.000000
   32       56.689004   0.000000
   33       63.302254   0.000000
   34       64.643640   0.000000
   35       64.948740   0.000000
   36       64.949043   0.000000
   37       67.559704   0.000000
   38       67.667740   0.000000
   39       67.667859   0.000000
   40       69.391938   0.000000
 
  0.9090909E-01  0.8595048E-17  0.9090909E-01  0.9015778E-02
    1       -0.666521   1.000000
    2        3.021814   1.000000
    3        5.844788   1.000000
    4        6.513010   1.000000
    5        6.526683   1.000000
    6        6.870382   1.000000
    7        6.923657   1.000000
    8        7.213272   1.000000
    9        8.092790   1.001937
   10        8.146796   1.005493
   11        9.511055  -0.000000
   12       10.563072  -0.000000
   13       17.557505   0.000000
   14       32.202666   0.000000
   15       33.262108   0.000000
   16       35.231970   0.000000
   17       37.222227   0.000000
   18       38.231949   0.000000
   19       39.689651   0.000000
   20       41.416723   0.000000
   21       42.393221   0.000000
   22       44.128327   0.000000
   23       44.180462   0.000000
   24       44.957890   0.000000
   25       48.348224   0.000000
   26       48.713522   0.000000
   27       50.091203   0.000000
   28       50.294067   0.000000
   29       52.887485   0.000000
   30       55.824189   0.000000
   31       56.689560   0.000000
   32       58.339952   0.000000
   33       61.743026   0.000000
   34       63.927509   0.000000
   35       64.355741   0.000000
   36       64.884270   0.000000
   37       66.329169   0.000000
   38       68.246920   0.000000
   39       69.356202   0.000000
   40       69.618815   0.000000
 
  0.1818182E+00  0.5218086E-16  0.9090909E-01  0.9015778E-02
    1        0.361090   1.000000
    2        3.691114   1.000000
    3        5.359701   1.000000
    4        5.699075   1.000000
    5        6.284914   1.000000
    6        6.930616   1.000000
    7        7.486982   1.000000
    8        7.710727   1.000000
    9        7.770796   1.000000
   10        7.920009   1.000022
   11        9.567134  -0.000000
   12       12.401231  -0.000000
   13       17.765175   0.000000
   14       28.864548   0.000000
   15       33.183462   0.000000
   16       34.160054   0.000000
   17       34.341709   0.000000
   18       34.669829   0.000000
   19       39.427157   0.000000
   20       40.855047   0.000000
   21       41.408135   0.000000
   22       42.126974   0.000000
   23       45.579248   0.000000
   24       46.919651   0.000000
   25       49.596907   0.000000
   26       49.988614   0.000000
   27       51.228421   0.000000
   28       53.895744   0.000000
   29       56.059673   0.000000
   30       58.489757   0.000000
   31       59.452575   0.000000
   32       60.139261   0.000000
   33       61.107729   0.000000
   34       62.215454   0.000000
   35       63.369266   0.000000
   36       64.106604   0.000000
   37       66.622926   0.000000
   38       69.227859   0.000000
   39       69.593191   0.000000
   40       71.492637   0.000000
 
  0.2727273E+00  0.2557543E-17  0.9090909E-01  0.9015778E-02
    1        1.750244   1.000000
    2        3.932499   1.000000
    3        4.433235   1.000000
    4        5.671902   1.000000
    5        6.091031   1.000000
    6        7.044362   1.000000
    7        7.427467   1.000000
    8        7.985277   1.000146
    9        8.486675   0.817826
   10        8.680696   0.099526
   11        9.593873  -0.000000
   12       14.324027   0.000000
   13       18.253171   0.000000
   14       24.742571   0.000000
   15       29.974784   0.000000
   16       31.507908   0.000000
   17       32.626211   0.000000
   18       34.652705   0.000000
   19       38.008858   0.000000
   20       40.298886   0.000000
   21       40.336956   0.000000
   22       42.683072   0.000000
   23       43.650087   0.000000
   24       46.991424   0.000000
   25       53.002564   0.000000
   26       53.951235   0.000000
   27       54.754649   0.000000
   28       54.853115   0.000000
   29       58.689854   0.000000
   30       59.034378   0.000000
   31       60.508529   0.000000
   32       61.818406   0.000000
   33       61.857260   0.000000
   34       62.254908   0.000000
   35       64.019509   0.000000
   36       66.006423   0.000000
   37       67.172208   0.000000
   38       69.767025   0.000000
   39       69.925337   0.000000
   40       71.852472   0.000000
 
  0.3636364E+00  0.2232317E-16  0.9090909E-01  0.9015778E-02
    1        2.793917   1.000000
    2        3.527768   1.000000
    3        3.919729   1.000000
    4        5.623384   1.000000
    5        6.651631   1.000000
    6        6.901537   1.000000
    7        7.138522   1.000000
    8        9.410289  -0.000000
    9        9.418149  -0.000000
   10        9.463721  -0.000000
   11        9.668906  -0.000000
   12       15.851577   0.000000
   13       18.847288   0.000000
   14       21.759931   0.000000
   15       26.600752   0.000000
   16       29.474150   0.000000
   17       29.936773   0.000000
   18       33.967169   0.000000
   19       37.112868   0.000000
   20       39.123089   0.000000
   21       41.108419   0.000000
   22       42.259017   0.000000
   23       44.131725   0.000000
   24       47.137075   0.000000
   25       52.706906   0.000000
   26       56.080892   0.000000
   27       56.759461   0.000000
   28       58.386870   0.000000
   29       59.184946   0.000000
   30       60.899921   0.000000
   31       61.624504   0.000000
   32       63.208049   0.000000
   33       63.284772   0.000000
   34       64.347848   0.000000
   35       65.062757   0.000000
   36       66.642131   0.000000
   37       69.232052   0.000000
   38       70.417695   0.000000
   39       71.192670   0.000000
   40       71.853949   0.000000
 
  0.4545455E+00  0.5654320E-16  0.9090909E-01  0.9015778E-02
    1        3.029355   1.000000
    2        3.169363   1.000000
    3        3.781432   1.000000
    4        5.697129   1.000000
    5        6.867522   1.000000
    6        6.975443   1.000000
    7        7.320337   1.000000
    8        9.542882  -0.000000
    9       10.019952  -0.000000
   10       10.146096  -0.000000
   11       11.317639  -0.000000
   12       15.059506   0.000000
   13       19.639670   0.000000
   14       21.562480   0.000000
   15       24.340561   0.000000
   16       27.157281   0.000000
   17       28.326072   0.000000
   18       33.342952   0.000000
   19       36.774143   0.000000
   20       38.251755   0.000000
   21       41.749781   0.000000