<?xml version="1.0" encoding="ISO-8859-1"?>
<modeling>
 <generator>
  <i name="program" type="string">vasp </i>
  <i name="version" type="string">6.2.0  </i>
  <i name="subversion" type="string">18Jan21 (build Mar 17 2021 09:06:54) complex                          serial </i>
  <i name="platform" type="string">LinuxIFC </i>
  <i name="date" type="string">2021 09 09 </i>
  <i name="time" type="string">12:00:00 </i>
 </generator>
 <incar>
  <i type="string" name="PREC">normal</i>
  <i type="int" name="ICHARG">     1</i>
  <i type="int" name="IBRION">     1</i>
  <i name="EDIFF">      0.00000100</i>
  <i type="int" name="NSW">     0</i>
  <i type="int" name="ISIF">     2</i>
  <i name="ENCUT">    280.00000000</i>
  <i type="int" name="NBANDS">    40</i>
  <i type="int" name="ISMEAR">     1</i>
  <i name="SIGMA">      0.20000000</i>
  <i type="logical" name="LCHARG"> T  </i>
  <i type="int" name="KPAR">     1</i>
  <i type="int" name="NCORE">     1</i>
  <i type="string" name="GGA">PE</i>
 </incar>
 <primitive_cell>
  <structure name="primitive_cell" >
   <crystal>
    <varray name="basis" >
     <v>       2.26010000       0.00000000       0.00000000 </v>
     <v>      -1.13005000       1.95730402       0.00000000 </v>
     <v>       0.00000000       0.00000000       4.01677000 </v>
    </varray>
    <i name="volume">     17.76899671 </i>
    <varray name="rec_basis" >
     <v>       0.44245830       0.25545342       0.00000000 </v>
     <v>       0.00000000       0.51090684       0.00000000 </v>
     <v>       0.00000000       0.00000000       0.24895625 </v>
    </varray>
   </crystal>
   <varray name="positions" >
    <v>       0.00000000       0.00000000       0.00000000 </v>
    <v>       0.33333333       0.66666667       0.50000000 </v>
   </varray>
  </structure>
  <varray name="primitive_index" >
   <v type="int" >        1 </v>
   <v type="int" >        2 </v>
  </varray>
 </primitive_cell>
 <kpoints>
  <generation param="Monkhorst-Pack">
   <v type="int" name="divisions">      11       11       11 </v>
   <v name="usershift">      0.00000000       0.00000000       0.00000000 </v>
   <v name="genvec1">      0.09090909       0.00000000       0.00000000 </v>
   <v name="genvec2">      0.00000000       0.09090909       0.00000000 </v>
   <v name="genvec3">      0.00000000       0.00000000       0.09090909 </v>
   <v name="shift">      0.00000000       0.00000000       0.00000000 </v>
  </generation>
  <varray name="kpointlist" >
   <v>       0.00000000       0.00000000       0.00000000 </v>
   <v>       0.09090909       0.00000000       0.00000000 </v>
   <v>       0.18181818       0.00000000       0.00000000 </v>
   <v>       0.27272727       0.00000000       0.00000000 </v>
   <v>       0.36363636       0.00000000       0.00000000 </v>
   <v>       0.45454545       0.00000000       0.00000000 </v>
   <v>       0.09090909       0.09090909       0.00000000 </v>
   <v>       0.18181818       0.09090909       0.00000000 </v>
   <v>       0.27272727       0.09090909       0.00000000 </v>
   <v>       0.36363636       0.09090909       0.00000000 </v>
   <v>       0.45454545       0.09090909       0.00000000 </v>
   <v>       0.18181818       0.18181818       0.00000000 </v>
   <v>       0.27272727       0.18181818       0.00000000 </v>
   <v>       0.36363636       0.18181818       0.00000000 </v>
   <v>       0.27272727       0.27272727       0.00000000 </v>
   <v>       0.36363636       0.27272727       0.00000000 </v>
   <v>       0.00000000       0.00000000       0.09090909 </v>
   <v>       0.09090909       0.00000000       0.09090909 </v>
   <v>       0.18181818       0.00000000       0.09090909 </v>
   <v>       0.27272727       0.00000000       0.09090909 </v>
   <v>       0.36363636       0.00000000       0.09090909 </v>
   <v>       0.45454545       0.00000000       0.09090909 </v>
   <v>       0.09090909       0.09090909       0.09090909 </v>
   <v>       0.18181818       0.09090909       0.09090909 </v>
   <v>       0.27272727       0.09090909       0.09090909 </v>
   <v>       0.36363636       0.09090909       0.09090909 </v>
   <v>       0.45454545       0.09090909       0.09090909 </v>
   <v>       0.18181818       0.18181818       0.09090909 </v>
   <v>       0.27272727       0.18181818       0.09090909 </v>
   <v>       0.36363636       0.18181818       0.09090909 </v>
   <v>       0.27272727       0.27272727       0.09090909 </v>
   <v>       0.36363636       0.27272727       0.09090909 </v>
   <v>       0.00000000       0.00000000       0.18181818 </v>
   <v>       0.09090909       0.00000000       0.18181818 </v>
   <v>       0.18181818       0.00000000       0.18181818 </v>
   <v>       0.27272727       0.00000000       0.18181818 </v>
   <v>       0.36363636       0.00000000       0.18181818 </v>
   <v>       0.45454545       0.00000000       0.18181818 </v>
   <v>       0.09090909       0.09090909       0.18181818 </v>
   <v>       0.18181818       0.09090909       0.18181818 </v>
   <v>       0.27272727       0.09090909       0.18181818 </v>
   <v>       0.36363636       0.09090909       0.18181818 </v>
   <v>       0.45454545       0.09090909       0.18181818 </v>
   <v>       0.18181818       0.18181818       0.18181818 </v>
   <v>       0.27272727       0.18181818       0.18181818 </v>
   <v>       0.36363636       0.18181818       0.18181818 </v>
   <v>       0.27272727       0.27272727       0.18181818 </v>
   <v>       0.36363636       0.27272727       0.18181818 </v>
   <v>       0.00000000       0.00000000       0.27272727 </v>
   <v>       0.09090909       0.00000000       0.27272727 </v>
   <v>       0.18181818       0.00000000       0.27272727 </v>
   <v>       0.27272727       0.00000000       0.27272727 </v>
   <v>       0.36363636       0.00000000       0.27272727 </v>
   <v>       0.45454545       0.00000000       0.27272727 </v>
   <v>       0.09090909       0.09090909       0.27272727 </v>
   <v>       0.18181818       0.09090909       0.27272727 </v>
   <v>       0.27272727       0.09090909       0.27272727 </v>
   <v>       0.36363636       0.09090909       0.27272727 </v>
   <v>       0.45454545       0.09090909       0.27272727 </v>
   <v>       0.18181818       0.18181818       0.27272727 </v>
   <v>       0.27272727       0.18181818       0.27272727 </v>
   <v>       0.36363636       0.18181818       0.27272727 </v>
   <v>       0.27272727       0.27272727       0.27272727 </v>
   <v>       0.36363636       0.27272727       0.27272727 </v>
   <v>       0.00000000       0.00000000       0.36363636 </v>
   <v>       0.09090909       0.00000000       0.36363636 </v>
   <v>       0.18181818       0.00000000       0.36363636 </v>
   <v>       0.27272727       0.00000000       0.36363636 </v>
   <v>       0.36363636       0.00000000       0.36363636 </v>
   <v>       0.45454545       0.00000000       0.36363636 </v>
   <v>       0.09090909       0.09090909       0.36363636 </v>
   <v>       0.18181818       0.09090909       0.36363636 </v>
   <v>       0.27272727       0.09090909       0.36363636 </v>
   <v>       0.36363636       0.09090909       0.36363636 </v>
   <v>       0.45454545       0.09090909       0.36363636 </v>
   <v>       0.18181818       0.18181818       0.36363636 </v>
   <v>       0.27272727       0.18181818       0.36363636 </v>
   <v>       0.36363636       0.18181818       0.36363636 </v>
   <v>       0.27272727       0.27272727       0.36363636 </v>
   <v>       0.36363636       0.27272727       0.36363636 </v>
   <v>       0.00000000       0.00000000       0.45454545 </v>
   <v>       0.09090909       0.00000000       0.45454545 </v>
   <v>       0.18181818       0.00000000       0.45454545 </v>
   <v>       0.27272727       0.00000000       0.45454545 </v>
   <v>       0.36363636       0.00000000       0.45454545 </v>
   <v>       0.45454545       0.00000000       0.45454545 </v>
   <v>       0.09090909       0.09090909       0.45454545 </v>
   <v>       0.18181818       0.09090909       0.45454545 </v>
   <v>       0.27272727       0.09090909       0.45454545 </v>
   <v>       0.36363636       0.09090909       0.45454545 </v>
   <v>       0.45454545       0.09090909       0.45454545 </v>
   <v>       0.18181818       0.18181818       0.45454545 </v>
   <v>       0.27272727       0.18181818       0.45454545 </v>
   <v>       0.36363636       0.18181818       0.45454545 </v>
   <v>       0.27272727       0.27272727       0.45454545 </v>
   <v>       0.36363636       0.27272727       0.45454545 </v>
  </varray>
  <varray name="weights" >
   <v>       0.00075131 </v>
   <v>       0.00450789 </v>
   <v>       0.00450789 </v>
   <v>       0.00450789 </v>
   <v>       0.00450789 </v>
   <v>       0.00450789 </v>
   <v>       0.00450789 </v>
   <v>       0.00901578 </v>
   <v>       0.00901578 </v>
   <v>       0.00901578 </v>
   <v>       0.00450789 </v>
   <v>       0.00450789 </v>
   <v>       0.00901578 </v>
   <v>       0.00901578 </v>
   <v>       0.00450789 </v>
   <v>       0.00450789 </v>
   <v>       0.00150263 </v>
   <v>       0.00901578 </v>
   <v>       0.00901578 </v>
   <v>       0.00901578 </v>
   <v>       0.00901578 </v>
   <v>       0.00901578 </v>
   <v>       0.00901578 </v>
   <v>       0.01803156 </v>
   <v>       0.01803156 </v>
   <v>       0.01803156 </v>
   <v>       0.00901578 </v>
   <v>       0.00901578 </v>
   <v>       0.01803156 </v>
   <v>       0.01803156 </v>
   <v>       0.00901578 </v>
   <v>       0.00901578 </v>
   <v>       0.00150263 </v>
   <v>       0.00901578 </v>
   <v>       0.00901578 </v>
   <v>       0.00901578 </v>
   <v>       0.00901578 </v>
   <v>       0.00901578 </v>
   <v>       0.00901578 </v>
   <v>       0.01803156 </v>
   <v>       0.01803156 </v>
   <v>       0.01803156 </v>
   <v>       0.00901578 </v>
   <v>       0.00901578 </v>
   <v>       0.01803156 </v>
   <v>       0.01803156 </v>
   <v>       0.00901578 </v>
   <v>       0.00901578 </v>
   <v>       0.00150263 </v>
   <v>       0.00901578 </v>
   <v>       0.00901578 </v>
   <v>       0.00901578 </v>
   <v>       0.00901578 </v>
   <v>       0.00901578 </v>
   <v>       0.00901578 </v>
   <v>       0.01803156 </v>
   <v>       0.01803156 </v>
   <v>       0.01803156 </v>
   <v>       0.00901578 </v>
   <v>       0.00901578 </v>
   <v>       0.01803156 </v>
   <v>       0.01803156 </v>
   <v>       0.00901578 </v>
   <v>       0.00901578 </v>
   <v>       0.00150263 </v>
   <v>       0.00901578 </v>
   <v>       0.00901578 </v>
   <v>       0.00901578 </v>
   <v>       0.00901578 </v>
   <v>       0.00901578 </v>
   <v>       0.00901578 </v>
   <v>       0.01803156 </v>
   <v>       0.01803156 </v>
   <v>       0.01803156 </v>
   <v>       0.00901578 </v>
   <v>       0.00901578 </v>
   <v>       0.01803156 </v>
   <v>       0.01803156 </v>
   <v>       0.00901578 </v>
   <v>       0.00901578 </v>
   <v>       0.00150263 </v>
   <v>       0.00901578 </v>
   <v>       0.00901578 </v>
   <v>       0.00901578 </v>
   <v>       0.00901578 </v>
   <v>       0.00901578 </v>
   <v>       0.00901578 </v>
   <v>       0.01803156 </v>
   <v>       0.01803156 </v>
   <v>       0.01803156 </v>
   <v>       0.00901578 </v>
   <v>       0.00901578 </v>
   <v>       0.01803156 </v>
   <v>       0.01803156 </v>
   <v>       0.00901578 </v>
   <v>       0.00901578 </v>
  </varray>
 </kpoints>
 <parameters>
  <separator name="general" >
   <i type="string" name="SYSTEM">unknown system</i>
   <i type="logical" name="LCOMPAT"> F  </i>
  </separator>
  <separator name="electronic" >
   <i type="string" name="PREC">normal</i>
   <i name="ENMAX">    280.00000000</i>
   <i name="ENAUG">    511.36800000</i>
   <i name="EDIFF">      0.00000100</i>
   <i type="int" name="IALGO">    38</i>
   <i type="int" name="IWAVPR">     0</i>
   <i type="int" name="NBANDS">    40</i>
   <i type="int" name="NBANDSLOW">    -1</i>
   <i type="int" name="NBANDSHIGH">    -1</i>
   <i name="NELECT">     16.00000000</i>
   <i type="int" name="TURBO">     0</i>
   <i type="int" name="IRESTART">     0</i>
   <i type="int" name="NREBOOT">     0</i>
   <i type="int" name="NMIN">     0</i>
   <i name="EREF">      0.00000000</i>
   <separator name="electronic smearing" >
    <i type="int" name="ISMEAR">     1</i>
    <i name="SIGMA">      0.20000000</i>
    <i name="KSPACING">      0.50000000</i>
    <i type="logical" name="KGAMMA"> T  </i>
    <i type="logical" name="KBLOWUP"> T  </i>
   </separator>
   <separator name="electronic projectors" >
    <i type="logical" name="LREAL"> F  </i>
    <v name="ROPT">      0.00000000</v>
    <i type="int" name="LMAXPAW">  -100</i>
    <i type="int" name="LMAXMIX">     2</i>
    <i type="logical" name="NLSPLINE"> F  </i>
   </separator>
   <separator name="electronic startup" >
    <i type="int" name="ISTART">     0</i>
    <i type="int" name="ICHARG">     1</i>
    <i type="int" name="INIWAV">     1</i>
   </separator>
   <separator name="electronic spin" >
    <i type="int" name="ISPIN">     1</i>
    <i type="logical" name="LNONCOLLINEAR"> F  </i>
    <v name="MAGMOM">      1.00000000      1.00000000</v>
    <i name="NUPDOWN">     -1.00000000</i>
    <i type="logical" name="LSORBIT"> F  </i>
    <v name="SAXIS">      0.00000000      0.00000000      1.00000000</v>
    <i type="logical" name="LSPIRAL"> F  </i>
    <v name="QSPIRAL">      0.00000000      0.00000000      0.00000000</v>
    <i type="logical" name="LZEROZ"> F  </i>
   </separator>
   <separator name="electronic exchange-correlation" >
    <i type="logical" name="LASPH"> F  </i>
    <i type="logical" name="LMETAGGA"> F  </i>
   </separator>
   <separator name="electronic convergence" >
    <i type="int" name="NELM">    60</i>
    <i type="int" name="NELMDL">    -5</i>
    <i type="int" name="NELMIN">     2</i>
    <i name="ENINI">    280.00000000</i>
    <separator name="electronic convergence detail" >
     <i type="logical" name="LDIAG"> T  </i>
     <i type="logical" name="LSUBROT"> F  </i>
     <i name="WEIMIN">      0.00000000</i>
     <i name="EBREAK">      0.00000001</i>
     <i name="DEPER">      0.30000000</i>
     <i type="int" name="NRMM">     4</i>
     <i name="TIME">      0.40000000</i>
    </separator>
   </separator>
   <separator name="electronic mixer" >
    <i name="AMIX">      0.40000000</i>
    <i name="BMIX">      1.00000000</i>
    <i name="AMIN">      0.10000000</i>
    <i name="AMIX_MAG">      1.60000000</i>
    <i name="BMIX_MAG">      1.00000000</i>
    <separator name="electronic mixer details" >
     <i type="int" name="IMIX">     4</i>
     <i type="logical" name="MIXFIRST"> F  </i>
     <i type="int" name="MAXMIX">   -45</i>
     <i name="WC">    100.00000000</i>
     <i type="int" name="INIMIX">     1</i>
     <i type="int" name="MIXPRE">     1</i>
     <i type="int" name="MREMOVE">     5</i>
    </separator>
   </separator>
   <separator name="electronic dipolcorrection" >
    <i type="logical" name="LDIPOL"> F  </i>
    <i type="logical" name="LMONO"> F  </i>
    <i type="int" name="IDIPOL">     0</i>
    <i name="EPSILON">      1.00000000</i>
    <v name="DIPOL">   -100.00000000   -100.00000000   -100.00000000</v>
    <i name="EFIELD">      0.00000000</i>
   </separator>
  </separator>
  <separator name="grids" >
   <i type="int" name="NGX">    10</i>
   <i type="int" name="NGY">    10</i>
   <i type="int" name="NGZ">    16</i>
   <i type="int" name="NGXF">    20</i>
   <i type="int" name="NGYF">    20</i>
   <i type="int" name="NGZF">    32</i>
   <i type="logical" name="ADDGRID"> F  </i>
  </separator>
  <separator name="ionic" >
   <i type="int" name="NSW">     0</i>
   <i type="int" name="IBRION">    -1</i>
   <i type="int" name="MDALGO">     0</i>
   <i type="int" name="ISIF">     2</i>
   <i name="PSTRESS">      0.00000000</i>
   <i name="EDIFFG">      0.00001000</i>
   <i type="int" name="NFREE">     0</i>
   <i name="POTIM">      0.50000000</i>
   <i name="SMASS">     -3.00000000</i>
   <i name="SCALEE">      1.00000000</i>
  </separator>
  <separator name="ionic md" >
   <i name="TEBEG">      0.00010000</i>
   <i name="TEEND">      0.00010000</i>
   <i type="int" name="NBLOCK">     1</i>
   <i type="int" name="KBLOCK">     1</i>
   <i type="int" name="NPACO">   256</i>
   <i name="APACO">     16.00000000</i>
  </separator>
  <separator name="symmetry" >
   <i type="int" name="ISYM">     2</i>
   <i name="SYMPREC">      0.00001000</i>
  </separator>
  <separator name="dos" >
   <i type="int" name="LORBIT">     0</i>
   <v name="RWIGS">     -1.00000000</v>
   <i type="int" name="NEDOS">   301</i>
   <i name="EMIN">     10.00000000</i>
   <i name="EMAX">    -10.00000000</i>
   <i name="EFERMI">      0.00000000</i>
  </separator>
  <separator name="writing" >
   <i type="int" name="NWRITE">     2</i>
   <i type="logical" name="LWAVE"> T  </i>
   <i type="logical" name="LDOWNSAMPLE"> F  </i>
   <i type="logical" name="LCHARG"> T  </i>
   <i type="logical" name="LPARD"> F  </i>
   <i type="logical" name="LVTOT"> F  </i>
   <i type="logical" name="LVHAR"> F  </i>
   <i type="logical" name="LELF"> F  </i>
   <i type="logical" name="LOPTICS"> F  </i>
   <v name="STM">      0.00000000      0.00000000      0.00000000      0.00000000      0.00000000      0.00000000      0.00000000</v>
  </separator>
  <separator name="performance" >
   <i type="int" name="NPAR">     1</i>
   <i type="int" name="NSIM">     4</i>
   <i type="int" name="NBLK">    -1</i>
   <i type="logical" name="LPLANE"> T  </i>
   <i type="logical" name="LSCALAPACK"> F  </i>
   <i type="logical" name="LSCAAWARE"> F  </i>
   <i type="logical" name="LSCALU"> F  </i>
   <i type="logical" name="LASYNC"> F  </i>
   <i type="logical" name="LORBITALREAL"> F  </i>
  </separator>
  <separator name="miscellaneous" >
   <i type="int" name="IDIOT">     3</i>
   <i type="int" name="PHON_NSTRUCT">    -1</i>
   <i type="logical" name="LMUSIC"> F  </i>
   <v name="POMASS">     55.84700000</v>
   <v name="DARWINR">      0.00000000</v>
   <v name="DARWINV">      1.00000000</v>
   <i type="logical" name="LCORR"> T  </i>
  </separator>
  <i type="logical" name="GGA_COMPAT"> T  </i>
  <i type="logical" name="LBERRY"> F  </i>
  <i type="int" name="ICORELEVEL">     0</i>
  <i type="logical" name="LDAU"> F  </i>
  <i type="int" name="I_CONSTRAINED_M">     0</i>
  <separator name="electronic exchange-correlation" >
   <i type="string" name="GGA">PE</i>
   <i type="int" name="VOSKOWN">     0</i>
   <i type="logical" name="LHFCALC"> F  </i>
   <i type="string" name="PRECFOCK"></i>
   <i type="logical" name="LSYMGRAD"> F  </i>
   <i type="logical" name="LHFONE"> F  </i>
   <i type="logical" name="LRHFCALC"> F  </i>
   <i type="logical" name="LTHOMAS"> F  </i>
   <i type="logical" name="LMODELHF"> F  </i>
   <i type="logical" name="LFOCKACE"> F  </i>
   <i name="ENCUT4O">     -1.00000000</i>
   <i type="int" name="EXXOEP">     0</i>
   <i type="int" name="FOURORBIT">     0</i>
   <i name="AEXX">      0.00000000</i>
   <i name="HFALPHA">      0.00000000</i>
   <i name="MCALPHA">      0.00000000</i>
   <i name="ALDAX">      1.00000000</i>
   <i name="AGGAX">      1.00000000</i>
   <i name="ALDAC">      1.00000000</i>
   <i name="AGGAC">      1.00000000</i>
   <i type="int" name="NKREDX">     1</i>
   <i type="int" name="NKREDY">     1</i>
   <i type="int" name="NKREDZ">     1</i>
   <i type="logical" name="SHIFTRED"> F  </i>
   <i type="logical" name="ODDONLY"> F  </i>
   <i type="logical" name="EVENONLY"> F  </i>
   <i type="int" name="LMAXFOCK">     0</i>
   <i type="int" name="NMAXFOCKAE">     0</i>
   <i type="logical" name="LFOCKAEDFT"> F  </i>
   <i name="HFSCREEN">      0.00000000</i>
   <i name="HFSCREENC">      0.00000000</i>
   <i type="int" name="NBANDSGWLOW">     0</i>
  </separator>
  <separator name="vdW DFT" >
   <i type="logical" name="LUSE_VDW"> F  </i>
   <i name="Zab_VDW">     -0.84910000</i>
   <i name="PARAM1">      0.12340000</i>
   <i name="PARAM2">      1.00000000</i>
   <i name="PARAM3">      0.00000000</i>
  </separator>
  <separator name="model GW" >
   <i type="int" name="MODEL_GW">     0</i>
   <i name="MODEL_EPS0">      5.33069901</i>
   <i name="MODEL_ALPHA">      1.00000000</i>
  </separator>
  <separator name="linear response parameters" >
   <i type="logical" name="LEPSILON"> F  </i>
   <i type="logical" name="LRPA"> F  </i>
   <i type="logical" name="LNABLA"> F  </i>
   <i type="logical" name="LVEL"> F  </i>
   <i type="int" name="KINTER">     0</i>
   <i name="CSHIFT">      0.10000000</i>
   <i name="OMEGAMAX">     -1.00000000</i>
   <i name="DEG_THRESHOLD">      0.00200000</i>
   <i name="RTIME">     -0.10000000</i>
   <i name="WPLASMAI">      0.00000000</i>
   <v name="DFIELD">      0.00000000      0.00000000      0.00000000</v>
   <v name="WPLASMA">      0.00000000      0.00000000      0.00000000      0.00000000      0.00000000      0.00000000      0.00000000      0.00000000      0.00000000</v>
  </separator>
  <separator name="orbital magnetization" >
   <i type="logical" name="NUCIND"> F  </i>
   <v name="MAGPOS">      0.00000000      0.00000000      0.00000000</v>
   <i type="logical" name="LNICSALL"> T  </i>
   <i type="logical" name="ORBITALMAG"> F  </i>
   <i type="logical" name="LMAGBLOCH"> F  </i>
   <i type="logical" name="LCHIMAG"> F  </i>
   <i type="logical" name="LGAUGE"> T  </i>
   <i type="int" name="MAGATOM">     0</i>
   <v name="MAGDIPOL">      0.00000000      0.00000000      0.00000000</v>
   <v name="AVECCONST">      0.00000000      0.00000000      0.00000000</v>
  </separator>
  <separator name="response functions" >
   <i type="logical" name="LFINITE_TEMPERATURE"> F  </i>
   <i type="logical" name="LADDER"> F  </i>
   <i type="logical" name="LRPAFORCE"> F  </i>
   <i type="logical" name="LFXC"> F  </i>
   <i type="logical" name="LHARTREE"> T  </i>
   <i type="int" name="IBSE">     0</i>
   <v type="int" name="KPOINT">    -1     0     0     0</v>
   <i type="logical" name="LTCTC"> F  </i>
   <i type="logical" name="LTCTE"> F  </i>
   <i type="logical" name="LTETE"> F  </i>
   <i type="logical" name="LTRIPLET"> F  </i>
   <i type="logical" name="LFXCEPS"> F  </i>
   <i type="logical" name="LFXHEG"> F  </i>
   <i type="int" name="NATURALO">     2</i>
   <i type="logical" name="LHOLEGF"> F  </i>
   <i type="logical" name="L2ORDER"> F  </i>
   <i type="logical" name="LDMP1"> F  </i>
   <i type="logical" name="LMP2LT"> F  </i>
   <i type="logical" name="LSMP2LT"> F  </i>
   <i type="logical" name="LGWLF"> F  </i>
   <i name="ENCUTGW">     -2.00000000</i>
   <i name="ENCUTGWSOFT">     -2.00000000</i>
   <i name="ENCUTLF">     -1.00000000</i>
   <i type="logical" name="LESF_SPLINES"> F  </i>
   <i type="int" name="LMAXMP2">    -1</i>
   <i name="SCISSOR">      0.00000000</i>
   <i type="int" name="NOMEGA">     0</i>
   <i type="int" name="NOMEGAR">     0</i>
   <i type="int" name="NBANDSGW">    -1</i>
   <i type="int" name="NBANDSO">    -1</i>
   <i type="int" name="NBANDSV">    -1</i>
   <i type="int" name="NELM">     1</i>
   <i type="int" name="NELMHF">     1</i>
   <i type="int" name="DIM">     3</i>
   <i type="int" name="IESPILON">     4</i>
   <i type="int" name="ANTIRES">     0</i>
   <i name="OMEGAMAX">    -30.00000000</i>
   <i name="OMEGAMIN">    -30.00000000</i>
   <i name="OMEGATL">   -200.00000000</i>
   <i type="int" name="OMEGAGRID">     0</i>
   <i name="CSHIFT">     -0.10000000</i>
   <i type="logical" name="LSELFENERGY"> F  </i>
   <i type="logical" name="LSPECTRAL"> F  </i>
   <i type="logical" name="LSPECTRALGW"> F  </i>
   <i type="logical" name="LSINGLES"> F  </i>
   <i type="logical" name="LFERMIGW"> F  </i>
   <i type="logical" name="ODDONLYGW"> F  </i>
   <i type="logical" name="EVENONLYGW"> F  </i>
   <i type="int" name="NKREDLFX">     1</i>
   <i type="int" name="NKREDLFY">     1</i>
   <i type="int" name="NKREDLFZ">     1</i>
   <i type="int" name="MAXMEM">  2800</i>
   <i type="int" name="TELESCOPE">     0</i>
   <i type="int" name="NTAUPAR">    -1</i>
   <i type="int" name="NOMEGAPAR">    -1</i>
   <i name="DAMP_NEWTON">      0.80000001</i>
   <i name="LAMBDA">      1.00000000</i>
  </separator>
  <separator name="External order field" >
   <i name="OFIELD_KAPPA">      0.00000000</i>
   <v name="OFIELD_K">      0.00000000      0.00000000      0.00000000</v>
   <i name="OFIELD_Q6_NEAR">      0.00000000</i>
   <i name="OFIELD_Q6_FAR">      0.00000000</i>
   <i name="OFIELD_A">      0.00000000</i>
  </separator>
 </parameters>
 <atominfo>
  <atoms>       2 </atoms>
  <types>       1 </types>
  <array name="atoms" >
   <dimension dim="1">ion</dimension>
   <field type="string">element</field>
   <field type="int">atomtype</field>
   <set>
    <rc><c>Fe</c><c>   1</c></rc>
    <rc><c>Fe</c><c>   1</c></rc>
   </set>
  </array>
  <array name="atomtypes" >
   <dimension dim="1">type</dimension>
   <field type="int">atomspertype</field>
   <field type="string">element</field>
   <field>mass</field>
   <field>valence</field>
   <field type="string">pseudopotential</field>
   <set>
    <rc><c>   2</c><c>Fe</c><c>     55.84700000</c><c>      8.00000000</c><c>  PAW_PBE Fe 06Sep2000                  </c></rc>
   </set>
  </array>
 </atominfo>
 <structure name="initialpos" >
  <crystal>
   <varray name="basis" >
    <v>       2.26010000       0.00000000       0.00000000 </v>
    <v>      -1.13005000       1.95730402       0.00000000 </v>
    <v>       0.00000000       0.00000000       4.01677000 </v>
   </varray>
   <i name="volume">     17.76899671 </i>
   <varray name="rec_basis" >
    <v>       0.44245830       0.25545342       0.00000000 </v>
    <v>       0.00000000       0.51090684       0.00000000 </v>
    <v>       0.00000000       0.00000000       0.24895625 </v>
   </varray>
  </crystal>
  <varray name="positions" >
   <v>       0.00000000       0.00000000       0.00000000 </v>
   <v>       0.33333333       0.66666667       0.50000000 </v>
  </varray>
 </structure>
 <calculation>
  <scstep>
   <time name="dav">    0.74    0.76</time>
   <time name="total">    0.75    0.77</time>
   <energy>
    <i name="alphaZ">    155.58284379 </i>
    <i name="ewald">  -1283.75608537 </i>
    <i name="hartreedc">   -187.62232656 </i>
    <i name="XCdc">      9.40877578 </i>
    <i name="pawpsdc">   1109.69170683 </i>
    <i name="pawaedc">  -1125.09647265 </i>
    <i name="eentropy">      0.00083731 </i>
    <i name="bandstr">    192.75687612 </i>
    <i name="atom">   1188.57490811 </i>
    <i name="e_fr_energy">     59.54106336 </i>
    <i name="e_wo_entrp">     59.54022605 </i>
    <i name="e_0_energy">     59.54078425 </i>
   </energy>
  </scstep>
  <scstep>
   <time name="dav">    0.63    0.63</time>
   <time name="total">    0.63    0.63</time>
   <energy>
    <i name="e_fr_energy">    -14.34937682 </i>
    <i name="e_wo_entrp">    -14.35005354 </i>
    <i name="e_0_energy">    -14.34960239 </i>
   </energy>
  </scstep>
  <scstep>
   <time name="dav">    0.74    0.74</time>
   <time name="total">    0.74    0.74</time>
   <energy>
    <i name="e_fr_energy">    -18.34057610 </i>
    <i name="e_wo_entrp">    -18.34109162 </i>
    <i name="e_0_energy">    -18.34074794 </i>
   </energy>
  </scstep>
  <scstep>
   <time name="dav">    0.70    0.70</time>
   <time name="total">    0.71    0.71</time>
   <energy>
    <i name="e_fr_energy">    -18.35425496 </i>
    <i name="e_wo_entrp">    -18.35475375 </i>
    <i name="e_0_energy">    -18.35442122 </i>
   </energy>
  </scstep>
  <scstep>
   <time name="dav">    0.70    0.70</time>
   <time name="total">    0.72    0.72</time>
   <energy>
    <i name="e_fr_energy">    -18.35426334 </i>
    <i name="e_wo_entrp">    -18.35476211 </i>
    <i name="e_0_energy">    -18.35442959 </i>
   </energy>
  </scstep>
  <scstep>
   <time name="dav">    0.83    0.83</time>
   <time name="total">    0.86    0.86</time>
   <energy>
    <i name="e_fr_energy">    -15.77594055 </i>
    <i name="e_wo_entrp">    -15.77734462 </i>
    <i name="e_0_energy">    -15.77640857 </i>
   </energy>
  </scstep>
  <scstep>
   <time name="dav">    0.72    0.72</time>
   <time name="total">    0.75    0.75</time>
   <energy>
    <i name="e_fr_energy">    -15.66064509 </i>
    <i name="e_wo_entrp">    -15.66186440 </i>
    <i name="e_0_energy">    -15.66105152 </i>
   </energy>
  </scstep>
  <scstep>
   <time name="dav">    0.78    0.78</time>
   <time name="total">    0.81    0.81</time>
   <energy>
    <i name="e_fr_energy">    -15.62309692 </i>
    <i name="e_wo_entrp">    -15.62437240 </i>
    <i name="e_0_energy">    -15.62352208 </i>
   </energy>
  </scstep>
  <scstep>
   <time name="dav">    0.77    0.77</time>
   <time name="total">    0.80    0.80</time>
   <energy>
    <i name="e_fr_energy">    -15.61739691 </i>
    <i name="e_wo_entrp">    -15.61867864 </i>
    <i name="e_0_energy">    -15.61782416 </i>
   </energy>
  </scstep>
  <scstep>
   <time name="dav">    0.64    0.64</time>
   <time name="total">    0.67    0.67</time>
   <energy>
    <i name="e_fr_energy">    -15.61739719 </i>
    <i name="e_wo_entrp">    -15.61867706 </i>
    <i name="e_0_energy">    -15.61782381 </i>
   </energy>
  </scstep>
  <scstep>
   <time name="dav">    0.65    0.65</time>
   <time name="total">    0.68    0.68</time>
   <energy>
    <i name="e_fr_energy">    -15.61737734 </i>
    <i name="e_wo_entrp">    -15.61865709 </i>
    <i name="e_0_energy">    -15.61780392 </i>
   </energy>
  </scstep>
  <scstep>
   <time name="dav">    0.53    0.53</time>
   <time name="total">    0.56    0.56</time>
   <energy>
    <i name="e_fr_energy">    -15.61737565 </i>
    <i name="e_wo_entrp">    -15.61865541 </i>
    <i name="e_0_energy">    -15.61780224 </i>
   </energy>
  </scstep>
  <scstep>
   <time name="dav">    0.47    0.47</time>
   <time name="total">    0.48    0.48</time>
   <energy>
    <i name="alphaZ">    155.58284379 </i>
    <i name="ewald">  -1283.75608537 </i>
    <i name="hartreedc">   -154.58924568 </i>
    <i name="XCdc">      7.84864883 </i>
    <i name="pawpsdc">   1664.61578905 </i>
    <i name="pawaedc">  -1683.70208888 </i>
    <i name="eentropy">      0.00127976 </i>
    <i name="bandstr">     89.80657433 </i>
    <i name="atom">   1188.57490811 </i>
    <i name="e_fr_energy">    -15.61737606 </i>
    <i name="e_wo_entrp">    -15.61865582 </i>
    <i name="e_0_energy">    -15.61780265 </i>
   </energy>
  </scstep>
  <structure>
   <crystal>
    <varray name="basis" >
     <v>       2.26010000       0.00000000       0.00000000 </v>
     <v>      -1.13005000       1.95730402       0.00000000 </v>
     <v>       0.00000000       0.00000000       4.01677000 </v>
    </varray>
    <i name="volume">     17.76899671 </i>
    <varray name="rec_basis" >
     <v>       0.44245830       0.25545342       0.00000000 </v>
     <v>       0.00000000       0.51090684       0.00000000 </v>
     <v>       0.00000000       0.00000000       0.24895625 </v>
    </varray>
   </crystal>
   <varray name="positions" >
    <v>       0.00000000       0.00000000       0.00000000 </v>
    <v>       0.33333333       0.66666667       0.50000000 </v>
   </varray>
  </structure>
  <varray name="forces" >
   <v>       0.00000000      -0.00000000       0.00000000 </v>
   <v>      -0.00000000       0.00000000      -0.00000000 </v>
  </varray>
  <varray name="stress" >
   <v>     821.42977349      -0.00000000       0.00000000 </v>
   <v>      -0.00000000     821.42977349      -0.00000000 </v>
   <v>       0.00000000       0.00000000      43.30162808 </v>
  </varray>
  <energy>
   <i name="e_fr_energy">    -15.61737606 </i>
   <i name="e_wo_entrp">    -15.61865582 </i>
   <i name="e_0_energy">    -15.61780265 </i>
  </energy>
  <time name="totalsc">    9.46    9.48</time>
  <eigenvalues>
   <array>
    <dimension dim="1">band</dimension>
    <dimension dim="2">kpoint</dimension>
    <dimension dim="3">spin</dimension>
    <field>eigene</field>
    <field>occ</field>
    <set>
     <set comment="spin 1">
      <set comment="kpoint 1">
       <r>   -1.1237    1.0000 </r>
       <r>    2.7531    1.0000 </r>
       <r>    5.8273    1.0000 </r>
       <r>    6.6481    1.0000 </r>
       <r>    6.6481    1.0000 </r>
       <r>    7.0187    1.0000 </r>
       <r>    7.0188    1.0000 </r>
       <r>    7.6558    1.0000 </r>
       <r>    8.2338    1.0196 </r>
       <r>    8.2338    1.0196 </r>
       <r>    9.4862   -0.0000 </r>
       <r>    9.4862   -0.0000 </r>
       <r>   17.1223    0.0000 </r>
       <r>   33.2430    0.0000 </r>
       <r>   33.3291    0.0000 </r>
       <r>   36.6149    0.0000 </r>
       <r>   40.2735    0.0000 </r>
       <r>   40.2735    0.0000 </r>
       <r>   40.9159    0.0000 </r>
       <r>   40.9160    0.0000 </r>
       <r>   41.3906    0.0000 </r>
       <r>   43.1487    0.0000 </r>
       <r>   43.1488    0.0000 </r>
       <r>   44.2185    0.0000 </r>
       <r>   47.4738    0.0000 </r>
       <r>   47.4738    0.0000 </r>
       <r>   48.6084    0.0000 </r>
       <r>   52.4138    0.0000 </r>
       <r>   52.4139    0.0000 </r>
       <r>   54.0060    0.0000 </r>
       <r>   54.0061    0.0000 </r>
       <r>   56.8966    0.0000 </r>
       <r>   64.4427    0.0000 </r>
       <r>   64.4827    0.0000 </r>
       <r>   65.0783    0.0000 </r>
       <r>   65.0786    0.0000 </r>
       <r>   66.1744    0.0000 </r>
       <r>   68.6765    0.0000 </r>
       <r>   68.6767    0.0000 </r>
       <r>   71.0892    0.0000 </r>
      </set>
      <set comment="kpoint 2">
       <r>   -0.7525    1.0000 </r>
       <r>    3.0386    1.0000 </r>
       <r>    5.8581    1.0000 </r>
       <r>    6.5566    1.0000 </r>
       <r>    6.7041    1.0000 </r>
       <r>    6.8750    1.0000 </r>
       <r>    6.8827    1.0000 </r>
       <r>    7.2347    1.0000 </r>
       <r>    8.0380    1.0006 </r>
       <r>    8.0954    1.0020 </r>
       <r>    9.5257   -0.0000 </r>
       <r>   10.7211   -0.0000 </r>
       <r>   17.1393    0.0000 </r>
       <r>   32.3522    0.0000 </r>
       <r>   33.6421    0.0000 </r>
       <r>   35.2841    0.0000 </r>
       <r>   37.1544    0.0000 </r>
       <r>   38.7927    0.0000 </r>
       <r>   39.1188    0.0000 </r>
       <r>   41.1734    0.0000 </r>
       <r>   42.6310    0.0000 </r>
       <r>   43.9869    0.0000 </r>
       <r>   44.1043    0.0000 </r>
       <r>   44.7434    0.0000 </r>
       <r>   48.6514    0.0000 </r>
       <r>   48.8915    0.0000 </r>
       <r>   49.5951    0.0000 </r>
       <r>   49.8480    0.0000 </r>
       <r>   52.9699    0.0000 </r>
       <r>   55.6479    0.0000 </r>
       <r>   56.4413    0.0000 </r>
       <r>   58.5280    0.0000 </r>
       <r>   62.8676    0.0000 </r>
       <r>   64.1339    0.0000 </r>
       <r>   64.1683    0.0000 </r>
       <r>   64.7919    0.0000 </r>
       <r>   65.4048    0.0000 </r>
       <r>   69.1072    0.0000 </r>
       <r>   70.9227    0.0000 </r>
       <r>   71.0844    0.0000 </r>
      </set>
      <set comment="kpoint 3">
       <r>    0.2852    1.0000 </r>
       <r>    3.6936    1.0000 </r>
       <r>    5.4515    1.0000 </r>
       <r>    5.6788    1.0000 </r>
       <r>    6.3223    1.0000 </r>
       <r>    7.0146    1.0000 </r>
       <r>    7.5412    1.0000 </r>
       <r>    7.5805    1.0000 </r>
       <r>    7.7707    1.0000 </r>
       <r>    7.8441    1.0000 </r>
       <r>    9.5905   -0.0000 </r>
       <r>   12.7597   -0.0000 </r>
       <r>   17.2225    0.0000 </r>
       <r>   28.8008    0.0000 </r>
       <r>   33.9659    0.0000 </r>
       <r>   34.0611    0.0000 </r>
       <r>   34.0638    0.0000 </r>
       <r>   34.8298    0.0000 </r>
       <r>   39.9060    0.0000 </r>
       <r>   40.6933    0.0000 </r>
       <r>   41.4081    0.0000 </r>
       <r>   41.8286    0.0000 </r>
       <r>   45.2710    0.0000 </r>
       <r>   46.4121    0.0000 </r>
       <r>   49.3377    0.0000 </r>
       <r>   50.0383    0.0000 </r>
       <r>   51.4231    0.0000 </r>
       <r>   53.8087    0.0000 </r>
       <r>   56.4442    0.0000 </r>
       <r>   58.1787    0.0000 </r>
       <r>   59.1912    0.0000 </r>
       <r>   60.9023    0.0000 </r>
       <r>   61.6996    0.0000 </r>
       <r>   62.5171    0.0000 </r>
       <r>   62.7070    0.0000 </r>
       <r>   63.5319    0.0000 </r>
       <r>   66.6917    0.0000 </r>
       <r>   69.8459    0.0000 </r>
       <r>   71.0472    0.0000 </r>
       <r>   71.2321    0.0000 </r>
      </set>
      <set comment="kpoint 4">
       <r>    1.7046    1.0000 </r>
       <r>    3.9277    1.0000 </r>
       <r>    4.4560    1.0000 </r>
       <r>    5.6788    1.0000 </r>
       <r>    6.1317    1.0000 </r>
       <r>    7.0110    1.0000 </r>
       <r>    7.4027    1.0000 </r>
       <r>    7.9439    1.0000 </r>
       <r>    8.4756    0.8515 </r>
       <r>    8.6977    0.0614 </r>
       <r>    9.6210   -0.0000 </r>
       <r>   15.0390    0.0000 </r>
       <r>   17.4115    0.0000 </r>
       <r>   24.6761    0.0000 </r>
       <r>   30.3485    0.0000 </r>
       <r>   31.3913    0.0000 </r>
       <r>   32.4073    0.0000 </r>
       <r>   34.8075    0.0000 </r>
       <r>   38.3060    0.0000 </r>
       <r>   41.0415    0.0000 </r>
       <r>   41.2149    0.0000 </r>
       <r>   41.6885    0.0000 </r>
       <r>   42.7702    0.0000 </r>
       <r>   46.3175    0.0000 </r>
       <r>   52.8925    0.0000 </r>
       <r>   54.2898    0.0000 </r>
       <r>   55.1340    0.0000 </r>
       <r>   56.4533    0.0000 </r>
       <r>   57.2779    0.0000 </r>
       <r>   58.7262    0.0000 </r>
       <r>   60.2609    0.0000 </r>
       <r>   61.9244    0.0000 </r>
       <r>   62.2058    0.0000 </r>
       <r>   62.4313    0.0000 </r>
       <r>   63.5718    0.0000 </r>
       <r>   66.6469    0.0000 </r>
       <r>   66.8306    0.0000 </r>
       <r>   70.5415    0.0000 </r>
       <r>   70.8585    0.0000 </r>
       <r>   71.1218    0.0000 </r>
      </set>
      <set comment="kpoint 5">
       <r>    2.8277    1.0000 </r>
       <r>    3.5819    1.0000 </r>
       <r>    3.7820    1.0000 </r>
       <r>    5.9156    1.0000 </r>
       <r>    6.5127    1.0000 </r>
       <r>    6.6717    1.0000 </r>
       <r>    7.0992    1.0000 </r>
       <r>    9.4228   -0.0000 </r>
       <r>    9.4552   -0.0000 </r>
       <r>    9.5619   -0.0000 </r>
       <r>    9.6219   -0.0000 </r>
       <r>   17.2393    0.0000 </r>
       <r>   17.4458    0.0000 </r>
       <r>   21.6564    0.0000 </r>
       <r>   26.9252    0.0000 </r>
       <r>   29.3413    0.0000 </r>
       <r>   29.5959    0.0000 </r>
       <r>   33.9733    0.0000 </r>
       <r>   37.1840    0.0000 </r>
       <r>   40.5354    0.0000 </r>
       <r>   40.8444    0.0000 </r>
       <r>   42.6438    0.0000 </r>
       <r>   43.0941    0.0000 </r>
       <r>   46.3595    0.0000 </r>
       <r>   53.9552    0.0000 </r>
       <r>   55.5585    0.0000 </r>
       <r>   56.3054    0.0000 </r>
       <r>   59.5644    0.0000 </r>
       <r>   59.7158    0.0000 </r>
       <r>   59.7812    0.0000 </r>
       <r>   61.3590    0.0000 </r>
       <r>   63.1411    0.0000 </r>
       <r>   63.2464    0.0000 </r>
       <r>   64.1273    0.0000 </r>
       <r>   65.0585    0.0000 </r>
       <r>   66.6824    0.0000 </r>
       <r>   70.3912    0.0000 </r>
       <r>   70.8200    0.0000 </r>
       <r>   70.9878    0.0000 </r>
       <r>   71.2465    0.0000 </r>
      </set>
      <set comment="kpoint 6">
       <r>    3.0792    1.0000 </r>
       <r>    3.3928    1.0000 </r>
       <r>    3.4440    1.0000 </r>
       <r>    6.2263    1.0000 </r>
       <r>    6.5957    1.0000 </r>
       <r>    6.9291    1.0000 </r>
       <r>    6.9587    1.0000 </r>
       <r>    9.6125   -0.0000 </r>
       <r>   10.0160   -0.0000 </r>
       <r>   10.1446   -0.0000 </r>
       <r>   11.4243   -0.0000 </r>
       <r>   15.2825    0.0000 </r>
       <r>   19.6958    0.0000 </r>
       <r>   21.5602    0.0000 </r>
       <r>   24.1863    0.0000 </r>
       <r>   26.8226    0.0000 </r>
       <r>   28.1836    0.0000 </r>
       <r>   33.3120    0.0000 </r>
       <r>   36.8077    0.0000 </r>
       <r>   39.2724    0.0000 </r>
       <r>   40.6640    0.0000 </r>
       <r>   43.6522    0.0000 </r>
       <r>   45.4464    0.0000 </r>
       <r>   45.9979    0.0000 </r>
       <r>   50.6130    0.0000 </r>
       <r>   56.4983    0.0000 </r>
       <r>   57.2808    0.0000 </r>
       <r>   60.7339    0.0000 </r>
       <r>   61.1728    0.0000 </r>
       <r>   62.3347    0.0000 </r>
       <r>   63.4595    0.0000 </r>
       <r>   63.7203    0.0000 </r>
       <r>   64.1269    0.0000 </r>
       <r>   66.3126    0.0000 </r>
       <r>   66.9394    0.0000 </r>
       <r>   69.2845    0.0000 </r>
       <r>   69.4736    0.0000 </r>
       <r>   69.7723    0.0000 </r>
       <r>   72.4415    0.0000 </r>
       <r>   72.8047    0.0000 </r>
      </set>
      <set comment="kpoint 7">
       <r>   -0.0439    1.0000 </r>
       <r>    3.5356    1.0000 </r>
       <r>    5.7080    1.0000 </r>
       <r>    5.7847    1.0000 </r>
       <r>    6.6050    1.0000 </r>
       <r>    6.6139    1.0000 </r>
       <r>    7.3663    1.0000 </r>
       <r>    7.5550    1.0000 </r>
       <r>    7.7093    1.0000 </r>
       <r>    8.0434    1.0006 </r>
       <r>    9.5352   -0.0000 </r>
       <r>   12.1989   -0.0000 </r>
       <r>   17.1956    0.0000 </r>
       <r>   30.4757    0.0000 </r>
       <r>   32.1629    0.0000 </r>
       <r>   34.2485    0.0000 </r>
       <r>   35.7844    0.0000 </r>
       <r>   37.8708    0.0000 </r>
       <r>   38.0111    0.0000 </r>
       <r>   39.7886    0.0000 </r>
       <r>   40.8413    0.0000 </r>
       <r>   45.6004    0.0000 </r>
       <r>   46.2102    0.0000 </r>
       <r>   47.1511    0.0000 </r>
       <r>   47.5483    0.0000 </r>
       <r>   48.2558    0.0000 </r>
       <r>   48.4705    0.0000 </r>
       <r>   54.2823    0.0000 </r>
       <r>   56.6176    0.0000 </r>
       <r>   57.4136    0.0000 </r>
       <r>   57.5341    0.0000 </r>
       <r>   60.5549    0.0000 </r>
       <r>   61.2940    0.0000 </r>
       <r>   63.1373    0.0000 </r>
       <r>   63.5790    0.0000 </r>
       <r>   64.1641    0.0000 </r>
       <r>   65.2648    0.0000 </r>
       <r>   70.2353    0.0000 </r>
       <r>   70.7106    0.0000 </r>
       <r>   71.8986    0.0000 </r>
      </set>
      <set comment="kpoint 8">
       <r>    1.2223    1.0000 </r>
       <r>    4.1352    1.0000 </r>
       <r>    4.8204    1.0000 </r>
       <r>    5.3718    1.0000 </r>
       <r>    6.2385    1.0000 </r>
       <r>    7.0082    1.0000 </r>
       <r>    7.1506    1.0000 </r>
       <r>    7.7287    1.0000 </r>
       <r>    8.2268    1.0181 </r>
       <r>    8.5954    0.3893 </r>
       <r>    9.5262   -0.0000 </r>
       <r>   14.2471    0.0000 </r>
       <r>   17.3816    0.0000 </r>
       <r>   26.7811    0.0000 </r>
       <r>   29.6102    0.0000 </r>
       <r>   32.1793    0.0000 </r>
       <r>   34.3650    0.0000 </r>
       <r>   35.4711    0.0000 </r>
       <r>   38.7423    0.0000 </r>
       <r>   38.8059    0.0000 </r>
       <r>   40.1859    0.0000 </r>
       <r>   45.0038    0.0000 </r>
       <r>   45.1731    0.0000 </r>
       <r>   46.8101    0.0000 </r>
       <r>   49.7867    0.0000 </r>
       <r>   50.4447    0.0000 </r>
       <r>   52.7177    0.0000 </r>
       <r>   57.0557    0.0000 </r>
       <r>   58.7458    0.0000 </r>
       <r>   59.0068    0.0000 </r>
       <r>   59.8135    0.0000 </r>
       <r>   61.4959    0.0000 </r>
       <r>   61.6570    0.0000 </r>
       <r>   62.6765    0.0000 </r>
       <r>   63.9781    0.0000 </r>
       <r>   63.9907    0.0000 </r>
       <r>   66.0715    0.0000 </r>
       <r>   70.2861    0.0000 </r>
       <r>   70.8341    0.0000 </r>
       <r>   72.2323    0.0000 </r>
      </set>
      <set comment="kpoint 9">
       <r>    2.6155    1.0000 </r>
       <r>    3.9795    1.0000 </r>
       <r>    4.0829    1.0000 </r>
       <r>    5.5209    1.0000 </r>
       <r>    6.3514    1.0000 </r>
       <r>    6.5591    1.0000 </r>
       <r>    7.2819    1.0000 </r>
       <r>    8.1088    1.0027 </r>
       <r>    9.1714   -0.0001 </r>
       <r>    9.5083   -0.0000 </r>
       <r>    9.7513   -0.0000 </r>
       <r>   16.5634    0.0000 </r>
       <r>   17.6894    0.0000 </r>
       <r>   22.9514    0.0000 </r>
       <r>   27.7656    0.0000 </r>
       <r>   28.7083    0.0000 </r>
       <r>   32.1386    0.0000 </r>
       <r>   33.2929    0.0000 </r>
       <r>   38.2027    0.0000 </r>
       <r>   39.4970    0.0000 </r>
       <r>   40.1842    0.0000 </r>
       <r>   44.3809    0.0000 </r>
       <r>   44.5389    0.0000 </r>
       <r>   47.6854    0.0000 </r>
       <r>   51.8952    0.0000 </r>
       <r>   54.3883    0.0000 </r>
       <r>   55.8189    0.0000 </r>
       <r>   56.1113    0.0000 </r>
       <r>   58.1576    0.0000 </r>
       <r>   60.4015    0.0000 </r>
       <r>   60.7528    0.0000 </r>
       <r>   63.0535    0.0000 </r>
       <r>   63.7949    0.0000 </r>
       <r>   64.4012    0.0000 </r>
       <r>   64.4870    0.0000 </r>
       <r>   66.1324    0.0000 </r>
       <r>   69.6268    0.0000 </r>
       <r>   70.0701    0.0000 </r>
       <r>   70.4935    0.0000 </r>
       <r>   72.5340    0.0000 </r>
      </set>
      <set comment="kpoint 10">
       <r>    3.2984    1.0000 </r>
       <r>    3.6336    1.0000 </r>
       <r>    3.6468    1.0000 </r>
       <r>    6.0703    1.0000 </r>
       <r>    6.2787    1.0000 </r>
       <r>    6.8150    1.0000 </r>
       <r>    6.9014    1.0000 </r>
       <r>    9.2382   -0.0000 </r>
       <r>    9.4843   -0.0000 </r>
       <r>    9.8231   -0.0000 </r>
       <r>   11.1844   -0.0000 </r>
       <r>   16.7997    0.0000 </r>
       <r>   18.9722    0.0000 </r>
       <r>   21.3796    0.0000 </r>
       <r>   25.6064    0.0000 </r>
       <r>   26.2868    0.0000 </r>
       <r>   28.7880    0.0000 </r>
       <r>   32.3224    0.0000 </r>
       <r>   37.2436    0.0000 </r>
       <r>   38.9941    0.0000 </r>
       <r>   41.5946    0.0000 </r>
       <r>   44.6208    0.0000 </r>
       <r>   45.4408    0.0000 </r>
       <r>   47.0726    0.0000 </r>
       <r>   52.5854    0.0000 </r>
       <r>   54.6047    0.0000 </r>
       <r>   56.3901    0.0000 </r>
       <r>   58.0732    0.0000 </r>
       <r>   60.0912    0.0000 </r>
       <r>   61.2936    0.0000 </r>
       <r>   62.2727    0.0000 </r>
       <r>   63.3999    0.0000 </r>
       <r>   63.8534    0.0000 </r>
       <r>   66.6127    0.0000 </r>
       <r>   67.8762    0.0000 </r>
       <r>   68.0465    0.0000 </r>
       <r>   68.6618    0.0000 </r>
       <r>   71.3351    0.0000 </r>
       <r>   71.6711    0.0000 </r>
       <r>   72.9578    0.0000 </r>
      </set>
      <set comment="kpoint 11">
       <r>    3.2916    1.0000 </r>
       <r>    3.4838    1.0000 </r>
       <r>    3.6113    1.0000 </r>
       <r>    6.1889    1.0000 </r>
       <r>    6.5534    1.0000 </r>
       <r>    6.7499    1.0000 </r>
       <r>    6.9313    1.0000 </r>
       <r>    9.4732   -0.0000 </r>
       <r>    9.8832   -0.0000 </r>
       <r>    9.9155   -0.0000 </r>
       <r>   12.5462   -0.0000 </r>
       <r>   15.0289    0.0000 </r>
       <r>   20.5955    0.0000 </r>
       <r>   22.0193    0.0000 </r>
       <r>   23.7559    0.0000 </r>
       <r>   25.3866    0.0000 </r>
       <r>   27.2558    0.0000 </r>
       <r>   31.9692    0.0000 </r>
       <r>   36.8283    0.0000 </r>
       <r>   38.8327    0.0000 </r>
       <r>   41.8952    0.0000 </r>
       <r>   45.3328    0.0000 </r>
       <r>   46.0277    0.0000 </r>
       <r>   46.9968    0.0000 </r>
       <r>   50.4387    0.0000 </r>
       <r>   55.8981    0.0000 </r>
       <r>   56.7649    0.0000 </r>
       <r>   58.6401    0.0000 </r>
       <r>   61.4456    0.0000 </r>
       <r>   61.6056    0.0000 </r>
       <r>   63.7440    0.0000 </r>
       <r>   63.8184    0.0000 </r>
       <r>   64.3602    0.0000 </r>
       <r>   65.6993    0.0000 </r>
       <r>   68.1184    0.0000 </r>
       <r>   70.4660    0.0000 </r>
       <r>   70.4785    0.0000 </r>
       <r>   70.5789    0.0000 </r>
       <r>   70.8447    0.0000 </r>
       <r>   73.9070    0.0000 </r>
      </set>
      <set comment="kpoint 12">
       <r>    2.5734    1.0000 </r>
       <r>    4.2606    1.0000 </r>
       <r>    4.6394    1.0000 </r>
       <r>    4.8289    1.0000 </r>
       <r>    6.3325    1.0000 </r>
       <r>    6.4633    1.0000 </r>
       <r>    7.4391    1.0000 </r>
       <r>    7.4443    1.0000 </r>
       <r>    9.1417   -0.0002 </r>
       <r>    9.3801   -0.0000 </r>
       <r>    9.8346   -0.0000 </r>
       <r>   16.2882    0.0000 </r>
       <r>   17.8704    0.0000 </r>
       <r>   24.6339    0.0000 </r>
       <r>   25.6484    0.0000 </r>
       <r>   30.1555    0.0000 </r>
       <r>   32.0134    0.0000 </r>
       <r>   34.6241    0.0000 </r>
       <r>   35.3346    0.0000 </r>
       <r>   39.5980    0.0000 </r>
       <r>   41.7271    0.0000 </r>
       <r>   46.2273    0.0000 </r>
       <r>   46.7926    0.0000 </r>
       <r>   48.5143    0.0000 </r>
       <r>   49.4935    0.0000 </r>
       <r>   51.6523    0.0000 </r>
       <r>   52.8336    0.0000 </r>
       <r>   57.4671    0.0000 </r>
       <r>   59.1139    0.0000 </r>
       <r>   59.5676    0.0000 </r>
       <r>   59.9679    0.0000 </r>
       <r>   63.2390    0.0000 </r>
       <r>   63.2833    0.0000 </r>
       <r>   64.9167    0.0000 </r>
       <r>   65.7864    0.0000 </r>
       <r>   66.9976    0.0000 </r>
       <r>   67.1868    0.0000 </r>
       <r>   69.6918    0.0000 </r>
       <r>   70.3026    0.0000 </r>
       <r>   73.3456    0.0000 </r>
      </set>
      <set comment="kpoint 13">
       <r>    3.7740    1.0000 </r>
       <r>    3.8904    1.0000 </r>
       <r>    4.2490    1.0000 </r>
       <r>    5.1644    1.0000 </r>
       <r>    6.1503    1.0000 </r>
       <r>    6.6769    1.0000 </r>
       <r>    6.9524    1.0000 </r>
       <r>    8.1435    1.0052 </r>
       <r>    9.2562   -0.0000 </r>
       <r>    9.7395   -0.0000 </r>
       <r>   11.3688   -0.0000 </r>
       <r>   18.4090    0.0000 </r>
       <r>   18.6402    0.0000 </r>
       <r>   21.6588    0.0000 </r>
       <r>   23.8493    0.0000 </r>
       <r>   27.5472    0.0000 </r>
       <r>   30.2310    0.0000 </r>
       <r>   30.9905    0.0000 </r>
       <r>   34.0116    0.0000 </r>
       <r>   41.8846    0.0000 </r>
       <r>   42.2758    0.0000 </r>
       <r>   46.0820    0.0000 </r>
       <r>   48.0786    0.0000 </r>
       <r>   49.8466    0.0000 </r>
       <r>   50.6643    0.0000 </r>
       <r>   52.6358    0.0000 </r>
       <r>   54.0981    0.0000 </r>
       <r>   55.4715    0.0000 </r>
       <r>   58.6143    0.0000 </r>
       <r>   60.1139    0.0000 </r>
       <r>   62.1278    0.0000 </r>
       <r>   63.2847    0.0000 </r>
       <r>   64.1406    0.0000 </r>
       <r>   66.3533    0.0000 </r>
       <r>   67.8252    0.0000 </r>
       <r>   68.0856    0.0000 </r>
       <r>   69.9526    0.0000 </r>
       <r>   70.7507    0.0000 </r>
       <r>   72.5168    0.0000 </r>
       <r>   74.2467    0.0000 </r>
      </set>
      <set comment="kpoint 14">
       <r>    3.7160    1.0000 </r>
       <r>    3.9075    1.0000 </r>
       <r>    4.1575    1.0000 </r>
       <r>    5.8160    1.0000 </r>
       <r>    6.1253    1.0000 </r>
       <r>    6.4842    1.0000 </r>
       <r>    6.9987    1.0000 </r>
       <r>    9.0135   -0.0037 </r>
       <r>    9.1851   -0.0001 </r>
       <r>    9.7363   -0.0000 </r>
       <r>   13.1749   -0.0000 </r>
       <r>   16.5815    0.0000 </r>
       <r>   21.0214    0.0000 </r>
       <r>   21.9064    0.0000 </r>
       <r>   22.9286    0.0000 </r>
       <r>   24.8264    0.0000 </r>
       <r>   27.9063    0.0000 </r>
       <r>   29.5088    0.0000 </r>
       <r>   33.3315    0.0000 </r>
       <r>   42.2870    0.0000 </r>
       <r>   44.0187    0.0000 </r>
       <r>   46.2417    0.0000 </r>
       <r>   47.5448    0.0000 </r>
       <r>   48.7861    0.0000 </r>
       <r>   52.8501    0.0000 </r>
       <r>   53.2191    0.0000 </r>
       <r>   54.8788    0.0000 </r>
       <r>   55.8935    0.0000 </r>
       <r>   59.9026    0.0000 </r>
       <r>   60.6817    0.0000 </r>
       <r>   61.4721    0.0000 </r>
       <r>   63.6530    0.0000 </r>
       <r>   64.0013    0.0000 </r>
       <r>   64.7605    0.0000 </r>
       <r>   68.6367    0.0000 </r>
       <r>   69.8809    0.0000 </r>
       <r>   71.1082    0.0000 </r>
       <r>   72.0933    0.0000 </r>
       <r>   72.5961    0.0000 </r>
       <r>   72.8959    0.0000 </r>
      </set>
      <set comment="kpoint 15">
       <r>    3.8786    1.0000 </r>
       <r>    4.4547    1.0000 </r>
       <r>    4.8233    1.0000 </r>
       <r>    4.8783    1.0000 </r>
       <r>    5.9620    1.0000 </r>
       <r>    6.4650    1.0000 </r>
       <r>    7.0417    1.0000 </r>
       <r>    8.4620    0.8886 </r>
       <r>    9.0358   -0.0024 </r>
       <r>    9.6913   -0.0000 </r>
       <r>   13.3479   -0.0000 </r>
       <r>   18.8328    0.0000 </r>
       <r>   19.4476    0.0000 </r>
       <r>   21.0730    0.0000 </r>
       <r>   22.7731    0.0000 </r>
       <r>   26.7597    0.0000 </r>
       <r>   27.1907    0.0000 </r>
       <r>   29.7182    0.0000 </r>
       <r>   30.6149    0.0000 </r>
       <r>   43.5933    0.0000 </r>
       <r>   44.5991    0.0000 </r>
       <r>   48.9692    0.0000 </r>
       <r>   50.0516    0.0000 </r>
       <r>   50.0887    0.0000 </r>
       <r>   50.4830    0.0000 </r>
       <r>   51.0250    0.0000 </r>
       <r>   54.0225    0.0000 </r>
       <r>   56.5105    0.0000 </r>
       <r>   56.7083    0.0000 </r>
       <r>   60.3581    0.0000 </r>
       <r>   60.9626    0.0000 </r>
       <r>   63.7581    0.0000 </r>
       <r>   64.1179    0.0000 </r>
       <r>   64.6728    0.0000 </r>
       <r>   68.8679    0.0000 </r>
       <r>   69.9708    0.0000 </r>
       <r>   70.1134    0.0000 </r>
       <r>   71.3515    0.0000 </r>
       <r>   72.6922    0.0000 </r>
       <r>   74.4565    0.0000 </r>
      </set>
      <set comment="kpoint 16">
       <r>    3.9107    1.0000 </r>
       <r>    4.5653    1.0000 </r>
       <r>    4.7010    1.0000 </r>
       <r>    5.2779    1.0000 </r>
       <r>    6.0498    1.0000 </r>
       <r>    6.0923    1.0000 </r>
       <r>    7.2130    1.0000 </r>
       <r>    8.9220   -0.0158 </r>
       <r>    8.9515   -0.0105 </r>
       <r>    9.2987   -0.0000 </r>
       <r>   15.2276    0.0000 </r>
       <r>   16.8022    0.0000 </r>
       <r>   19.0614    0.0000 </r>
       <r>   23.2001    0.0000 </r>
       <r>   23.7527    0.0000 </r>
       <r>   24.6739    0.0000 </r>
       <r>   26.7007    0.0000 </r>
       <r>   27.9613    0.0000 </r>
       <r>   29.9892    0.0000 </r>
       <r>   43.9274    0.0000 </r>
       <r>   47.1272    0.0000 </r>
       <r>   48.2574    0.0000 </r>
       <r>   49.0950    0.0000 </r>
       <r>   49.7392    0.0000 </r>
       <r>   51.2054    0.0000 </r>
       <r>   52.3988    0.0000 </r>
       <r>   55.7738    0.0000 </r>
       <r>   56.1398    0.0000 </r>
       <r>   56.4657    0.0000 </r>
       <r>   59.8427    0.0000 </r>
       <r>   60.7580    0.0000 </r>
       <r>   61.4709    0.0000 </r>
       <r>   64.1400    0.0000 </r>
       <r>   64.2837    0.0000 </r>
       <r>   68.4289    0.0000 </r>
       <r>   70.1492    0.0000 </r>
       <r>   71.7115    0.0000 </r>
       <r>   72.2136    0.0000 </r>
       <r>   72.7615    0.0000 </r>
       <r>   73.4088    0.0000 </r>
      </set>
      <set comment="kpoint 17">
       <r>   -1.0353    1.0000 </r>
       <r>    2.7318    1.0000 </r>
       <r>    5.8044    1.0000 </r>
       <r>    6.6393    1.0000 </r>
       <r>    6.6394    1.0000 </r>
       <r>    6.9993    1.0000 </r>
       <r>    6.9993    1.0000 </r>
       <r>    7.4252    1.0000 </r>
       <r>    8.2779    1.0296 </r>
       <r>    8.2779    1.0296 </r>
       <r>    9.4755   -0.0000 </r>
       <r>    9.4755   -0.0000 </r>
       <r>   17.5079    0.0000 </r>
       <r>   32.4301    0.0000 </r>
       <r>   33.6766    0.0000 </r>
       <r>   36.4315    0.0000 </r>
       <r>   40.2975    0.0000 </r>
       <r>   40.2975    0.0000 </r>
       <r>   40.9154    0.0000 </r>
       <r>   40.9155    0.0000 </r>
       <r>   41.8604    0.0000 </r>
       <r>   43.1355    0.0000 </r>
       <r>   43.1355    0.0000 </r>
       <r>   44.5100    0.0000 </r>
       <r>   47.1957    0.0000 </r>
       <r>   47.1957    0.0000 </r>
       <r>   48.8695    0.0000 </r>
       <r>   52.6368    0.0000 </r>
       <r>   52.6369    0.0000 </r>
       <r>   54.3663    0.0000 </r>
       <r>   54.3663    0.0000 </r>
       <r>   56.6890    0.0000 </r>
       <r>   63.3023    0.0000 </r>
       <r>   64.6436    0.0000 </r>
       <r>   64.9487    0.0000 </r>
       <r>   64.9490    0.0000 </r>
       <r>   67.5597    0.0000 </r>
       <r>   67.6677    0.0000 </r>
       <r>   67.6679    0.0000 </r>
       <r>   69.3919    0.0000 </r>
      </set>
      <set comment="kpoint 18">
       <r>   -0.6665    1.0000 </r>
       <r>    3.0218    1.0000 </r>
       <r>    5.8448    1.0000 </r>
       <r>    6.5130    1.0000 </r>
       <r>    6.5267    1.0000 </r>
       <r>    6.8704    1.0000 </r>
       <r>    6.9237    1.0000 </r>
       <r>    7.2133    1.0000 </r>
       <r>    8.0928    1.0019 </r>
       <r>    8.1468    1.0055 </r>
       <r>    9.5111   -0.0000 </r>
       <r>   10.5631   -0.0000 </r>
       <r>   17.5575    0.0000 </r>
       <r>   32.2027    0.0000 </r>
       <r>   33.2621    0.0000 </r>
       <r>   35.2320    0.0000 </r>
       <r>   37.2222    0.0000 </r>
       <r>   38.2319    0.0000 </r>
       <r>   39.6897    0.0000 </r>
       <r>   41.4167    0.0000 </r>
       <r>   42.3932    0.0000 </r>
       <r>   44.1283    0.0000 </r>
       <r>   44.1805    0.0000 </r>
       <r>   44.9579    0.0000 </r>
       <r>   48.3482    0.0000 </r>
       <r>   48.7135    0.0000 </r>
       <r>   50.0912    0.0000 </r>
       <r>   50.2941    0.0000 </r>
       <r>   52.8875    0.0000 </r>
       <r>   55.8242    0.0000 </r>
       <r>   56.6896    0.0000 </r>
       <r>   58.3400    0.0000 </r>
       <r>   61.7430    0.0000 </r>
       <r>   63.9275    0.0000 </r>
       <r>   64.3557    0.0000 </r>
       <r>   64.8843    0.0000 </r>
       <r>   66.3292    0.0000 </r>
       <r>   68.2469    0.0000 </r>
       <r>   69.3562    0.0000 </r>
       <r>   69.6188    0.0000 </r>
      </set>
      <set comment="kpoint 19">
       <r>    0.3611    1.0000 </r>
       <r>    3.6911    1.0000 </r>
       <r>    5.3597    1.0000 </r>
       <r>    5.6991    1.0000 </r>
       <r>    6.2849    1.0000 </r>
       <r>    6.9306    1.0000 </r>
       <r>    7.4870    1.0000 </r>
       <r>    7.7107    1.0000 </r>
       <r>    7.7708    1.0000 </r>
       <r>    7.9200    1.0000 </r>
       <r>    9.5671   -0.0000 </r>
       <r>   12.4012   -0.0000 </r>
       <r>   17.7652    0.0000 </r>
       <r>   28.8645    0.0000 </r>
       <r>   33.1835    0.0000 </r>
       <r>   34.1601    0.0000 </r>
       <r>   34.3417    0.0000 </r>
       <r>   34.6698    0.0000 </r>
       <r>   39.4272    0.0000 </r>
       <r>   40.8550    0.0000 </r>
       <r>   41.4081    0.0000 </r>
       <r>   42.1270    0.0000 </r>
       <r>   45.5792    0.0000 </r>
       <r>   46.9197    0.0000 </r>
       <r>   49.5969    0.0000 </r>
       <r>   49.9886    0.0000 </r>
       <r>   51.2284    0.0000 </r>
       <r>   53.8957    0.0000 </r>
       <r>   56.0597    0.0000 </r>
       <r>   58.4898    0.0000 </r>
       <r>   59.4526    0.0000 </r>
       <r>   60.1393    0.0000 </r>
       <r>   61.1077    0.0000 </r>
       <r>   62.2155    0.0000 </r>
       <r>   63.3693    0.0000 </r>
       <r>   64.1066    0.0000 </r>
       <r>   66.6229    0.0000 </r>
       <r>   69.2279    0.0000 </r>
       <r>   69.5932    0.0000 </r>
       <r>   71.4926    0.0000 </r>
      </set>
      <set comment="kpoint 20">
       <r>    1.7502    1.0000 </r>
       <r>    3.9325    1.0000 </r>
       <r>    4.4332    1.0000 </r>
       <r>    5.6719    1.0000 </r>
       <r>    6.0910    1.0000 </r>
       <r>    7.0444    1.0000 </r>
       <r>    7.4275    1.0000 </r>
       <r>    7.9853    1.0001 </r>
       <r>    8.4867    0.8178 </r>
       <r>    8.6807    0.0995 </r>
       <r>    9.5939   -0.0000 </r>
       <r>   14.3240    0.0000 </r>
       <r>   18.2532    0.0000 </r>
       <r>   24.7426    0.0000 </r>
       <r>   29.9748    0.0000 </r>
       <r>   31.5079    0.0000 </r>
       <r>   32.6262    0.0000 </r>
       <r>   34.6527    0.0000 </r>
       <r>   38.0089    0.0000 </r>
       <r>   40.2989    0.0000 </r>
       <r>   40.3370    0.0000 </r>
       <r>   42.6831    0.0000 </r>
       <r>   43.6501    0.0000 </r>
       <r>   46.9914    0.0000 </r>
       <r>   53.0026    0.0000 </r>
       <r>   53.9512    0.0000 </r>
       <r>   54.7546    0.0000 </r>
       <r>   54.8531    0.0000 </r>
       <r>   58.6899    0.0000 </r>
       <r>   59.0344    0.0000 </r>
       <r>   60.5085    0.0000 </r>
       <r>   61.8184    0.0000 </r>
       <r>   61.8573    0.0000 </r>
       <r>   62.2549    0.0000 </r>
       <r>   64.0195    0.0000 </r>
       <r>   66.0064    0.0000 </r>
       <r>   67.1722    0.0000 </r>
       <r>   69.7670    0.0000 </r>
       <r>   69.9253    0.0000 </r>
       <r>   71.8525    0.0000 </r>
      </set>
      <set comment="kpoint 21">
       <r>    2.7939    1.0000 </r>
       <r>    3.5278    1.0000 </r>
       <r>    3.9197    1.0000 </r>
       <r>    5.6234    1.0000 </r>
       <r>    6.6516    1.0000 </r>
       <r>    6.9015    1.0000 </r>
       <r>    7.1385    1.0000 </r>
       <r>    9.4103   -0.0000 </r>
       <r>    9.4181   -0.0000 </r>
       <r>    9.4637   -0.0000 </r>
       <r>    9.6689   -0.0000 </r>
       <r>   15.8516    0.0000 </r>
       <r>   18.8473    0.0000 </r>
       <r>   21.7599    0.0000 </r>
       <r>   26.6008    0.0000 </r>
       <r>   29.4741    0.0000 </r>
       <r>   29.9368    0.0000 </r>
       <r>   33.9672    0.0000 </r>
       <r>   37.1129    0.0000 </r>
       <r>   39.1231    0.0000 </r>
       <r>   41.1084    0.0000 </r>
       <r>   42.2590    0.0000 </r>
       <r>   44.1317    0.0000 </r>
       <r>   47.1371    0.0000 </r>
       <r>   52.7069    0.0000 </r>
       <r>   56.0809    0.0000 </r>
       <r>   56.7595    0.0000 </r>
       <r>   58.3869    0.0000 </r>
       <r>   59.1849    0.0000 </r>
       <r>   60.8999    0.0000 </r>
       <r>   61.6245    0.0000 </r>
       <r>   63.2080    0.0000 </r>
       <r>   63.2848    0.0000 </r>
       <r>   64.3478    0.0000 </r>
       <r>   65.0628    0.0000 </r>
       <r>   66.6421    0.0000 </r>
       <r>   69.2321    0.0000 </r>
       <r>   70.4177    0.0000 </r>
       <r>   71.1927    0.0000 </r>
       <r>   71.8539    0.0000 </r>
      </set>
      <set comment="kpoint 22">
       <r>    3.0294    1.0000 </r>
       <r>    3.1694    1.0000 </r>
       <r>    3.7814    1.0000 </r>
       <r>    5.6971    1.0000 </r>
       <r>    6.8675    1.0000 </r>
       <r>    6.9754    1.0000 </r>
       <r>    7.3203    1.0000 </r>
       <r>    9.5429   -0.0000 </r>
       <r>   10.0200   -0.0000 </r>
       <r>   10.1461   -0.0000 </r>
       <r>   11.3176   -0.0000 </r>
       <r>   15.0595    0.0000 </r>
       <r>   19.6397    0.0000 </r>
       <r>   21.5625    0.0000 </r>
       <r>   24.3406    0.0000 </r>
       <r>   27.1573    0.0000 </r>
       <r>   28.3261    0.0000 </r>
       <r>   33.3430    0.0000 </r>
       <r>   36.7741    0.0000 </r>
       <r>   38.2518    0.0000 </r>
       <r>   41.7498    0.0000 </r>
       <r>   42.7430    0.0000 </r>
       <r>   44.3116    0.0000 </r>
       <r>   47.9100    0.0000 </r>
       <r>   50.4586    0.0000 </r>
       <r>   56.7253    0.0000 </r>
       <r>   57.1285    0.0000 </r>
       <r>   59.9896    0.0000 </r>
       <r>   61.1229    0.0000 </r>
       <r>   62.4822    0.0000 </r>
       <r>   63.3866    0.0000 </r>
       <r>   63.7034    0.0000 </r>
       <r>   64.7616    0.0000 </r>
       <r>   65.8875    0.0000 </r>
       <r>   67.6048    0.0000 </r>
       <r>   68.9062    0.0000 </r>
       <r>   69.5950    0.0000 </r>
       <r>   70.6779    0.0000 </r>
       <r>   72.4338    0.0000 </r>
       <r>   72.4492    0.0000 </r>
      </set>
      <set comment="kpoint 23">
       <r>    0.0359    1.0000 </r>
       <r>    3.5285    1.0000 </r>
       <r>    5.6700    1.0000 </r>
       <r>    5.7211    1.0000 </r>
       <r>    6.5131    1.0000 </r>
       <r>    6.6331    1.0000 </r>
       <r>    7.3346    1.0000 </r>
       <r>    7.5864    1.0000 </r>
       <r>    7.7690    1.0000 </r>
       <r>    8.0962    1.0021 </r>
       <r>    9.5158   -0.0000 </r>
       <r>   11.8992   -0.0000 </r>
       <r>   17.6918    0.0000 </r>
       <r>   30.5005    0.0000 </r>
       <r>   32.2087    0.0000 </r>
       <r>   33.6781    0.0000 </r>
       <r>   35.4138    0.0000 </r>
       <r>   38.0625    0.0000 </r>
       <r>   38.4239    0.0000 </r>
       <r>   39.0919    0.0000 </r>
       <r>   41.4939    0.0000 </r>
       <r>   45.7381    0.0000 </r>
       <r>   46.2023    0.0000 </r>
       <r>   46.8062    0.0000 </r>
       <r>   47.4091    0.0000 </r>
       <r>   48.7588    0.0000 </r>
       <r>   49.0913    0.0000 </r>
       <r>   54.1401    0.0000 </r>
       <r>   56.2980    0.0000 </r>
       <r>   57.5045    0.0000 </r>
       <r>   57.9362    0.0000 </r>
       <r>   60.1682    0.0000 </r>
       <r>   60.1735    0.0000 </r>
       <r>   63.7017    0.0000 </r>
       <r>   63.7630    0.0000 </r>
       <r>   64.0678    0.0000 </r>
       <r>   65.5610    0.0000 </r>
       <r>   69.4537    0.0000 </r>
       <r>   69.5917    0.0000 </r>
       <r>   70.8863    0.0000 </r>
      </set>
      <set comment="kpoint 24">
       <r>    1.2843    1.0000 </r>
       <r>    4.1480    1.0000 </r>
       <r>    4.7545    1.0000 </r>
       <r>    5.3983    1.0000 </r>
       <r>    6.2047    1.0000 </r>
       <r>    6.8284    1.0000 </r>
       <r>    7.3790    1.0000 </r>
       <r>    7.6915    1.0000 </r>
       <r>    8.2920    1.0323 </r>
       <r>    8.5730    0.4833 </r>
       <r>    9.5092   -0.0000 </r>
       <r>   13.6945   -0.0000 </r>
       <r>   18.0840    0.0000 </r>
       <r>   26.8464    0.0000 </r>
       <r>   29.6739    0.0000 </r>
       <r>   31.9107    0.0000 </r>
       <r>   33.9250    0.0000 </r>
       <r>   35.8462    0.0000 </r>
       <r>   37.6980    0.0000 </r>
       <r>   39.2164    0.0000 </r>
       <r>   40.7014    0.0000 </r>
       <r>   44.5862    0.0000 </r>
       <r>   45.8136    0.0000 </r>
       <r>   47.3315    0.0000 </r>
       <r>   49.6272    0.0000 </r>
       <r>   50.5015    0.0000 </r>
       <r>   52.9102    0.0000 </r>
       <r>   56.1850    0.0000 </r>
       <r>   58.3215    0.0000 </r>
       <r>   59.4861    0.0000 </r>
       <r>   60.2407    0.0000 </r>
       <r>   61.2591    0.0000 </r>
       <r>   61.4882    0.0000 </r>
       <r>   62.7278    0.0000 </r>
       <r>   63.8678    0.0000 </r>
       <r>   64.4201    0.0000 </r>
       <r>   66.2165    0.0000 </r>
       <r>   69.7212    0.0000 </r>
       <r>   70.4288    0.0000 </r>
       <r>   71.4357    0.0000 </r>
      </set>
      <set comment="kpoint 25">
       <r>    2.6255    1.0000 </r>
       <r>    3.9566    1.0000 </r>
       <r>    4.1268    1.0000 </r>
       <r>    5.4754    1.0000 </r>
       <r>    6.2797    1.0000 </r>
       <r>    6.7169    1.0000 </r>
       <r>    7.2891    1.0000 </r>
       <r>    8.1237    1.0036 </r>
       <r>    9.1946   -0.0000 </r>
       <r>    9.3977   -0.0000 </r>
       <r>    9.8032   -0.0000 </r>
       <r>   15.5052    0.0000 </r>
       <r>   18.8447    0.0000 </r>
       <r>   23.0236    0.0000 </r>
       <r>   27.7782    0.0000 </r>
       <r>   28.4862    0.0000 </r>
       <r>   32.3303    0.0000 </r>
       <r>   33.2074    0.0000 </r>
       <r>   38.2788    0.0000 </r>
       <r>   38.7725    0.0000 </r>
       <r>   40.1695    0.0000 </r>
       <r>   43.9660    0.0000 </r>
       <r>   45.5435    0.0000 </r>
       <r>   48.2613    0.0000 </r>
       <r>   51.6055    0.0000 </r>
       <r>   53.2150    0.0000 </r>
       <r>   55.4841    0.0000 </r>
       <r>   57.3125    0.0000 </r>
       <r>   58.4685    0.0000 </r>
       <r>   59.7448    0.0000 </r>
       <r>   61.2860    0.0000 </r>
       <r>   62.8768    0.0000 </r>
       <r>   63.6257    0.0000 </r>
       <r>   64.1642    0.0000 </r>
       <r>   65.1245    0.0000 </r>
       <r>   66.1385    0.0000 </r>
       <r>   68.9040    0.0000 </r>
       <r>   70.1441    0.0000 </r>
       <r>   70.9753    0.0000 </r>
       <r>   71.2149    0.0000 </r>
      </set>
      <set comment="kpoint 26">
       <r>    3.1977    1.0000 </r>
       <r>    3.5073    1.0000 </r>
       <r>    3.9357    1.0000 </r>
       <r>    5.6052    1.0000 </r>
       <r>    6.7053    1.0000 </r>
       <r>    6.7882    1.0000 </r>
       <r>    7.0586    1.0000 </r>
       <r>    9.2209   -0.0000 </r>
       <r>    9.4092   -0.0000 </r>
       <r>    9.8402   -0.0000 </r>
       <r>   11.1638   -0.0000 </r>
       <r>   16.2393    0.0000 </r>
       <r>   19.3155    0.0000 </r>
       <r>   21.6315    0.0000 </r>
       <r>   25.3055    0.0000 </r>
       <r>   26.5259    0.0000 </r>
       <r>   29.1288    0.0000 </r>
       <r>   32.1644    0.0000 </r>
       <r>   37.3914    0.0000 </r>
       <r>   38.8678    0.0000 </r>
       <r>   40.9508    0.0000 </r>
       <r>   43.6381    0.0000 </r>
       <r>   46.4489    0.0000 </r>
       <r>   47.8070    0.0000 </r>
       <r>   52.0093    0.0000 </r>
       <r>   54.3810    0.0000 </r>
       <r>   56.3867    0.0000 </r>
       <r>   58.7387    0.0000 </r>
       <r>   60.4016    0.0000 </r>
       <r>   61.1287    0.0000 </r>
       <r>   62.2070    0.0000 </r>
       <r>   63.3734    0.0000 </r>
       <r>   63.8181    0.0000 </r>
       <r>   66.2626    0.0000 </r>
       <r>   67.7343    0.0000 </r>
       <r>   68.3653    0.0000 </r>
       <r>   69.0550    0.0000 </r>
       <r>   70.8078    0.0000 </r>
       <r>   71.3513    0.0000 </r>
       <r>   73.3447    0.0000 </r>
      </set>
      <set comment="kpoint 27">
       <r>    3.2257    1.0000 </r>
       <r>    3.3102    1.0000 </r>
       <r>    3.9260    1.0000 </r>
       <r>    5.6789    1.0000 </r>
       <r>    6.6598    1.0000 </r>
       <r>    7.0809    1.0000 </r>
       <r>    7.1023    1.0000 </r>
       <r>    9.3971   -0.0000 </r>
       <r>    9.8780   -0.0000 </r>
       <r>    9.9184   -0.0000 </r>
       <r>   12.4700   -0.0000 </r>
       <r>   14.9285    0.0000 </r>
       <r>   20.4738    0.0000 </r>
       <r>   21.5634    0.0000 </r>
       <r>   24.3795    0.0000 </r>
       <r>   25.5896    0.0000 </r>
       <r>   27.4818    0.0000 </r>
       <r>   31.8158    0.0000 </r>
       <r>   36.9528    0.0000 </r>
       <r>   38.7772    0.0000 </r>
       <r>   41.6081    0.0000 </r>
       <r>   43.6068    0.0000 </r>
       <r>   46.2555    0.0000 </r>
       <r>   48.9476    0.0000 </r>
       <r>   50.1930    0.0000 </r>
       <r>   54.9083    0.0000 </r>
       <r>   57.2622    0.0000 </r>
       <r>   59.2769    0.0000 </r>
       <r>   61.4210    0.0000 </r>
       <r>   61.6574    0.0000 </r>
       <r>   63.6448    0.0000 </r>
       <r>   63.6653    0.0000 </r>
       <r>   64.6043    0.0000 </r>
       <r>   65.8680    0.0000 </r>
       <r>   67.2567    0.0000 </r>
       <r>   70.0752    0.0000 </r>
       <r>   70.5165    0.0000 </r>
       <r>   71.0106    0.0000 </r>
       <r>   71.8578    0.0000 </r>
       <r>   73.6497    0.0000 </r>
      </set>
      <set comment="kpoint 28">
       <r>    2.6038    1.0000 </r>
       <r>    4.2102    1.0000 </r>
       <r>    4.6860    1.0000 </r>
       <r>    4.8508    1.0000 </r>
       <r>    6.3254    1.0000 </r>
       <r>    6.4202    1.0000 </r>
       <r>    7.4154    1.0000 </r>
       <r>    7.5363    1.0000 </r>
       <r>    9.1859   -0.0001 </r>
       <r>    9.2756   -0.0000 </r>
       <r>    9.8850   -0.0000 </r>
       <r>   15.3771    0.0000 </r>
       <r>   18.8956    0.0000 </r>
       <r>   24.7055    0.0000 </r>
       <r>   25.7328    0.0000 </r>
       <r>   29.8934    0.0000 </r>
       <r>   31.6416    0.0000 </r>
       <r>   35.0146    0.0000 </r>
       <r>   35.5564    0.0000 </r>
       <r>   38.6716    0.0000 </r>
       <r>   42.2696    0.0000 </r>
       <r>   46.7139    0.0000 </r>
       <r>   46.8791    0.0000 </r>
       <r>   48.3524    0.0000 </r>
       <r>   48.8417    0.0000 </r>
       <r>   52.3618    0.0000 </r>
       <r>   52.6787    0.0000 </r>
       <r>   57.4672    0.0000 </r>
       <r>   58.1562    0.0000 </r>
       <r>   59.6103    0.0000 </r>
       <r>   61.1937    0.0000 </r>
       <r>   63.1987    0.0000 </r>
       <r>   63.2150    0.0000 </r>
       <r>   64.7597    0.0000 </r>
       <r>   65.1882    0.0000 </r>
       <r>   67.1779    0.0000 </r>
       <r>   67.6995    0.0000 </r>
       <r>   69.7750    0.0000 </r>
       <r>   70.4922    0.0000 </r>
       <r>   71.4853    0.0000 </r>
      </set>
      <set comment="kpoint 29">
       <r>    3.6603    1.0000 </r>
       <r>    3.9826    1.0000 </r>
       <r>    4.2808    1.0000 </r>
       <r>    5.1463    1.0000 </r>
       <r>    6.2003    1.0000 </r>
       <r>    6.6491    1.0000 </r>
       <r>    6.9897    1.0000 </r>
       <r>    8.1752    1.0088 </r>
       <r>    9.1728   -0.0001 </r>
       <r>    9.7743   -0.0000 </r>
       <r>   11.3876   -0.0000 </r>
       <r>   17.0778    0.0000 </r>
       <r>   19.9613    0.0000 </r>
       <r>   21.8151    0.0000 </r>
       <r>   23.9250    0.0000 </r>
       <r>   27.2353    0.0000 </r>
       <r>   29.8756    0.0000 </r>
       <r>   31.4283    0.0000 </r>
       <r>   34.4155    0.0000 </r>
       <r>   40.3334    0.0000 </r>
       <r>   43.0854    0.0000 </r>
       <r>   46.2768    0.0000 </r>
       <r>   47.8830    0.0000 </r>
       <r>   49.9826    0.0000 </r>
       <r>   50.6539    0.0000 </r>
       <r>   51.7905    0.0000 </r>
       <r>   55.1026    0.0000 </r>
       <r>   55.7124    0.0000 </r>
       <r>   58.3238    0.0000 </r>
       <r>   60.6362    0.0000 </r>
       <r>   62.1266    0.0000 </r>
       <r>   63.2920    0.0000 </r>
       <r>   64.0806    0.0000 </r>
       <r>   66.3022    0.0000 </r>
       <r>   67.6601    0.0000 </r>
       <r>   68.3573    0.0000 </r>
       <r>   69.3936    0.0000 </r>
       <r>   71.2057    0.0000 </r>
       <r>   72.1687    0.0000 </r>
       <r>   73.1018    0.0000 </r>
      </set>
      <set comment="kpoint 30">
       <r>    3.6036    1.0000 </r>
       <r>    3.9352    1.0000 </r>
       <r>    4.3260    1.0000 </r>
       <r>    5.4944    1.0000 </r>
       <r>    6.3006    1.0000 </r>
       <r>    6.5133    1.0000 </r>
       <r>    7.1174    1.0000 </r>
       <r>    9.0207   -0.0032 </r>
       <r>    9.1001   -0.0006 </r>
       <r>    9.7593   -0.0000 </r>
       <r>   13.1914   -0.0000 </r>
       <r>   16.4607    0.0000 </r>
       <r>   20.5642    0.0000 </r>
       <r>   22.3793    0.0000 </r>
       <r>   22.7865    0.0000 </r>
       <r>   25.0487    0.0000 </r>
       <r>   28.2977    0.0000 </r>
       <r>   29.1756    0.0000 </r>
       <r>   33.7860    0.0000 </r>
       <r>   41.6584    0.0000 </r>
       <r>   43.4834    0.0000 </r>
       <r>   45.3256    0.0000 </r>
       <r>   48.5663    0.0000 </r>
       <r>   49.4968    0.0000 </r>
       <r>   52.2180    0.0000 </r>
       <r>   52.6946    0.0000 </r>
       <r>   55.4377    0.0000 </r>
       <r>   56.9106    0.0000 </r>
       <r>   60.0912    0.0000 </r>
       <r>   60.4839    0.0000 </r>
       <r>   61.6531    0.0000 </r>
       <r>   63.6412    0.0000 </r>
       <r>   63.8407    0.0000 </r>
       <r>   65.0485    0.0000 </r>
       <r>   68.6099    0.0000 </r>
       <r>   69.6338    0.0000 </r>
       <r>   71.2403    0.0000 </r>
       <r>   71.4717    0.0000 </r>
       <r>   71.9821    0.0000 </r>
       <r>   73.2524    0.0000 </r>
      </set>
      <set comment="kpoint 31">
       <r>    3.8746    1.0000 </r>
       <r>    4.4736    1.0000 </r>
       <r>    4.7918    1.0000 </r>
       <r>    4.8798    1.0000 </r>
       <r>    6.0473    1.0000 </r>
       <r>    6.3798    1.0000 </r>
       <r>    7.0736    1.0000 </r>
       <r>    8.5052    0.7553 </r>
       <r>    8.9480   -0.0111 </r>
       <r>    9.7225   -0.0000 </r>
       <r>   13.3907   -0.0000 </r>
       <r>   18.4051    0.0000 </r>
       <r>   19.5250    0.0000 </r>
       <r>   21.1553    0.0000 </r>
       <r>   23.1431    0.0000 </r>
       <r>   26.5098    0.0000 </r>
       <r>   26.7984    0.0000 </r>
       <r>   30.2326    0.0000 </r>
       <r>   31.0989    0.0000 </r>
       <r>   42.0783    0.0000 </r>
       <r>   45.2827    0.0000 </r>
       <r>   48.2142    0.0000 </r>
       <r>   48.4951    0.0000 </r>
       <r>   50.8280    0.0000 </r>
       <r>   50.8570    0.0000 </r>
       <r>   52.1950    0.0000 </r>
       <r>   54.8021    0.0000 </r>
       <r>   56.3983    0.0000 </r>
       <r>   56.7250    0.0000 </r>
       <r>   60.4566    0.0000 </r>
       <r>   61.1894    0.0000 </r>
       <r>   63.7212    0.0000 </r>
       <r>   63.8628    0.0000 </r>
       <r>   64.9565    0.0000 </r>
       <r>   68.7896    0.0000 </r>
       <r>   69.8530    0.0000 </r>
       <r>   70.0068    0.0000 </r>
       <r>   71.6026    0.0000 </r>
       <r>   72.7187    0.0000 </r>
       <r>   74.1979    0.0000 </r>
      </set>
      <set comment="kpoint 32">
       <r>    3.9204    1.0000 </r>
       <r>    4.5877    1.0000 </r>
       <r>    4.7327    1.0000 </r>
       <r>    5.2002    1.0000 </r>
       <r>    6.0212    1.0000 </r>
       <r>    6.1228    1.0000 </r>
       <r>    7.2346    1.0000 </r>
       <r>    8.8616   -0.0293 </r>
       <r>    8.9558   -0.0098 </r>
       <r>    9.3339   -0.0000 </r>
       <r>   15.3088    0.0000 </r>
       <r>   16.7890    0.0000 </r>
       <r>   19.0621    0.0000 </r>
       <r>   22.9707    0.0000 </r>
       <r>   23.0098    0.0000 </r>
       <r>   25.3291    0.0000 </r>
       <r>   26.5629    0.0000 </r>
       <r>   28.3687    0.0000 </r>
       <r>   30.5052    0.0000 </r>
       <r>   42.9516    0.0000 </r>
       <r>   45.8825    0.0000 </r>
       <r>   48.0196    0.0000 </r>
       <r>   48.6586    0.0000 </r>
       <r>   50.8604    0.0000 </r>
       <r>   51.7276    0.0000 </r>
       <r>   53.4647    0.0000 </r>
       <r>   55.4305    0.0000 </r>
       <r>   56.4724    0.0000 </r>
       <r>   56.8211    0.0000 </r>
       <r>   59.6083    0.0000 </r>
       <r>   60.6974    0.0000 </r>
       <r>   61.8126    0.0000 </r>
       <r>   64.1138    0.0000 </r>
       <r>   64.2628    0.0000 </r>
       <r>   68.4030    0.0000 </r>
       <r>   70.0378    0.0000 </r>
       <r>   71.5625    0.0000 </r>
       <r>   71.9002    0.0000 </r>
       <r>   73.3260    0.0000 </r>
       <r>   73.5250    0.0000 </r>
      </set>
      <set comment="kpoint 33">
       <r>   -0.7743    1.0000 </r>
       <r>    2.6486    1.0000 </r>
       <r>    5.7336    1.0000 </r>
       <r>    6.6206    1.0000 </r>
       <r>    6.6207    1.0000 </r>
       <r>    6.8635    1.0000 </r>
       <r>    6.9457    1.0000 </r>
       <r>    6.9457    1.0000 </r>
       <r>    8.3990    1.0018 </r>
       <r>    8.3990    1.0018 </r>
       <r>    9.4392   -0.0000 </r>
       <r>    9.4392   -0.0000 </r>
       <r>   18.5388    0.0000 </r>
[...]
       <r>   25.1038    0.0000 </r>
       <r>   25.8766    0.0000 </r>
       <r>   30.1020    0.0000 </r>
       <r>   31.2766    0.0000 </r>
       <r>   36.3320    0.0000 </r>
       <r>   37.4481    0.0000 </r>
       <r>   39.8166    0.0000 </r>
       <r>   41.4524    0.0000 </r>
       <r>   47.0611    0.0000 </r>
       <r>   47.5039    0.0000 </r>
       <r>   57.1287    0.0000 </r>
       <r>   57.5760    0.0000 </r>
       <r>   57.9939    0.0000 </r>
       <r>   59.3843    0.0000 </r>
       <r>   61.3280    0.0000 </r>
       <r>   61.6823    0.0000 </r>
       <r>   61.9264    0.0000 </r>
       <r>   62.6087    0.0000 </r>
       <r>   64.8280    0.0000 </r>
       <r>   65.0259    0.0000 </r>
       <r>   67.4792    0.0000 </r>
       <r>   67.9653    0.0000 </r>
       <r>   69.8851    0.0000 </r>
       <r>   70.1713    0.0000 </r>
       <r>   71.3353    0.0000 </r>
       <r>   72.3117    0.0000 </r>
      </set>
      <set comment="kpoint 95">
       <r>    3.9500    1.0000 </r>
       <r>    4.0370    1.0000 </r>
       <r>    5.1151    1.0000 </r>
       <r>    5.3618    1.0000 </r>
       <r>    5.8621    1.0000 </r>
       <r>    6.1132    1.0000 </r>
       <r>    7.4814    1.0000 </r>
       <r>    7.7108    1.0000 </r>
       <r>    9.5342   -0.0000 </r>
       <r>    9.7631   -0.0000 </r>
       <r>   14.3558    0.0000 </r>
       <r>   14.9069    0.0000 </r>
       <r>   21.1212    0.0000 </r>
       <r>   21.5921    0.0000 </r>
       <r>   23.2422    0.0000 </r>
       <r>   23.6882    0.0000 </r>
       <r>   30.3361    0.0000 </r>
       <r>   32.0185    0.0000 </r>
       <r>   36.3224    0.0000 </r>
       <r>   37.8054    0.0000 </r>
       <r>   39.5527    0.0000 </r>
       <r>   40.7702    0.0000 </r>
       <r>   49.2979    0.0000 </r>
       <r>   49.7473    0.0000 </r>
       <r>   54.2813    0.0000 </r>
       <r>   54.3285    0.0000 </r>
       <r>   59.8693    0.0000 </r>
       <r>   61.1577    0.0000 </r>
       <r>   61.5227    0.0000 </r>
       <r>   61.8755    0.0000 </r>
       <r>   62.9691    0.0000 </r>
       <r>   63.1368    0.0000 </r>
       <r>   63.3368    0.0000 </r>
       <r>   63.9060    0.0000 </r>
       <r>   67.0836    0.0000 </r>
       <r>   67.3217    0.0000 </r>
       <r>   69.6883    0.0000 </r>
       <r>   70.0707    0.0000 </r>
       <r>   70.3944    0.0000 </r>
       <r>   70.6293    0.0000 </r>
      </set>
      <set comment="kpoint 96">
       <r>    4.1904    1.0000 </r>
       <r>    4.3492    1.0000 </r>
       <r>    5.0232    1.0000 </r>
       <r>    5.1191    1.0000 </r>
       <r>    5.8762    1.0000 </r>
       <r>    6.0289    1.0000 </r>
       <r>    7.5425    1.0000 </r>
       <r>    7.7135    1.0000 </r>
       <r>    9.5104   -0.0000 </r>
       <r>    9.5935   -0.0000 </r>
       <r>   16.3284    0.0000 </r>
       <r>   16.4920    0.0000 </r>
       <r>   19.3346    0.0000 </r>
       <r>   19.7160    0.0000 </r>
       <r>   22.5803    0.0000 </r>
       <r>   23.0294    0.0000 </r>
       <r>   32.0645    0.0000 </r>
       <r>   33.0012    0.0000 </r>
       <r>   35.4180    0.0000 </r>
       <r>   35.6044    0.0000 </r>
       <r>   39.3213    0.0000 </r>
       <r>   40.1647    0.0000 </r>
       <r>   50.6537    0.0000 </r>
       <r>   51.3156    0.0000 </r>
       <r>   55.4760    0.0000 </r>
       <r>   55.8968    0.0000 </r>
       <r>   58.8692    0.0000 </r>
       <r>   59.2271    0.0000 </r>
       <r>   61.3378    0.0000 </r>
       <r>   61.8806    0.0000 </r>
       <r>   62.9529    0.0000 </r>
       <r>   63.2122    0.0000 </r>
       <r>   64.4741    0.0000 </r>
       <r>   64.6411    0.0000 </r>
       <r>   65.4512    0.0000 </r>
       <r>   66.9951    0.0000 </r>
       <r>   68.6766    0.0000 </r>
       <r>   70.1509    0.0000 </r>
       <r>   72.3335    0.0000 </r>
       <r>   72.7136    0.0000 </r>
      </set>
     </set>
    </set>
   </array>
  </eigenvalues>
  <separator name="orbital magnetization" >
   <v name="MAGDIPOLOUT">      0.00000000      0.00000000      0.00000000</v>
  </separator>
  <dos>
   <i name="efermi">      8.56901503 </i>
   <total>
    <array>
     <dimension dim="1">gridpoints</dimension>
     <dimension dim="2">spin</dimension>
     <field>energy</field>
     <field>total</field>
     <field>integrated</field>
     <set>
      <set comment="spin 1">
       <r>    -4.9031     0.0000     0.0000 </r>
       <r>    -4.6259     0.0000     0.0000 </r>
       <r>    -4.3488     0.0000     0.0000 </r>
       <r>    -4.0716     0.0000     0.0000 </r>
       <r>    -3.7945     0.0000     0.0000 </r>
       <r>    -3.5173     0.0000     0.0000 </r>
       <r>    -3.2401     0.0000     0.0000 </r>
       <r>    -2.9630    -0.0000    -0.0000 </r>
       <r>    -2.6858    -0.0000    -0.0000 </r>
       <r>    -2.4087    -0.0000    -0.0000 </r>
       <r>    -2.1315    -0.0000    -0.0000 </r>
       <r>    -1.8544    -0.0000    -0.0000 </r>
       <r>    -1.5772    -0.0000    -0.0000 </r>
       <r>    -1.3001    -0.0004    -0.0001 </r>
       <r>    -1.0229     0.0087     0.0023 </r>
       <r>    -0.7458     0.0434     0.0143 </r>
       <r>    -0.4686     0.0943     0.0405 </r>
       <r>    -0.1915     0.0540     0.0554 </r>
       <r>     0.0857     0.1285     0.0911 </r>
       <r>     0.3628     0.1577     0.1347 </r>
       <r>     0.6400     0.1857     0.1862 </r>
       <r>     0.9172     0.0898     0.2111 </r>
       <r>     1.1943     0.1715     0.2586 </r>
       <r>     1.4715     0.3150     0.3459 </r>
       <r>     1.7486     0.2599     0.4179 </r>
       <r>     2.0258     0.3341     0.5105 </r>
       <r>     2.3029     0.2171     0.5707 </r>
       <r>     2.5801     0.4110     0.6846 </r>
       <r>     2.8572     1.4539     1.0875 </r>
       <r>     3.1344     1.8384     1.5971 </r>
       <r>     3.4115     1.8720     2.1159 </r>
       <r>     3.6887     2.6213     2.8424 </r>
       <r>     3.9658     2.3867     3.5039 </r>
       <r>     4.2430     2.2696     4.1329 </r>
       <r>     4.5201     2.1347     4.7246 </r>
       <r>     4.7973     2.8346     5.5102 </r>
       <r>     5.0744     2.5384     6.2137 </r>
       <r>     5.3516     2.7906     6.9871 </r>
       <r>     5.6288     2.0263     7.5487 </r>
       <r>     5.9059     1.9353     8.0851 </r>
       <r>     6.1831     2.9381     8.8994 </r>
       <r>     6.4602     3.2452     9.7988 </r>
       <r>     6.7374     3.1585    10.6742 </r>
       <r>     7.0145     3.2666    11.5795 </r>
       <r>     7.2917     2.9076    12.3854 </r>
       <r>     7.5688     3.2307    13.2808 </r>
       <r>     7.8460     2.7904    14.0542 </r>
       <r>     8.1231     2.5398    14.7581 </r>
       <r>     8.4003     2.9719    15.5818 </r>
       <r>     8.6774     2.3761    16.2403 </r>
       <r>     8.9546     2.3561    16.8933 </r>
       <r>     9.2317     3.5931    17.8892 </r>
       <r>     9.5089     4.2213    19.0591 </r>
       <r>     9.7860     3.5383    20.0398 </r>
       <r>    10.0632     3.4849    21.0056 </r>
       <r>    10.3404     0.8805    21.2496 </r>
       <r>    10.6175     0.1257    21.2845 </r>
       <r>    10.8947     0.5052    21.4245 </r>
       <r>    11.1718     0.6308    21.5993 </r>
       <r>    11.4490     0.6318    21.7745 </r>
       <r>    11.7261     0.6552    21.9560 </r>
       <r>    12.0033     0.5169    22.0993 </r>
       <r>    12.2804     0.3651    22.2005 </r>
       <r>    12.5576     0.3160    22.2881 </r>
       <r>    12.8347     0.3555    22.3866 </r>
       <r>    13.1119     0.4146    22.5015 </r>
       <r>    13.3890     0.5954    22.6665 </r>
       <r>    13.6662     0.4838    22.8006 </r>
       <r>    13.9433     0.3256    22.8908 </r>
       <r>    14.2205     0.4301    23.0100 </r>
       <r>    14.4977     0.5001    23.1486 </r>
       <r>    14.7748     0.1551    23.1916 </r>
       <r>    15.0520     0.3125    23.2782 </r>
       <r>    15.3291     0.3006    23.3615 </r>
       <r>    15.6063     0.3978    23.4718 </r>
       <r>    15.8834     0.3054    23.5564 </r>
       <r>    16.1606     0.2102    23.6147 </r>
       <r>    16.4377     0.3317    23.7066 </r>
       <r>    16.7149     0.4633    23.8350 </r>
       <r>    16.9920     0.2337    23.8998 </r>
       <r>    17.2692     0.2104    23.9581 </r>
       <r>    17.5463     0.2344    24.0231 </r>
       <r>    17.8235     0.2441    24.0908 </r>
       <r>    18.1006     0.1219    24.1245 </r>
       <r>    18.3778     0.1634    24.1698 </r>
       <r>    18.6549     0.1581    24.2137 </r>
       <r>    18.9321     0.3768    24.3181 </r>
       <r>    19.2093     0.4703    24.4485 </r>
       <r>    19.4864     0.2727    24.5240 </r>
       <r>    19.7636     0.7296    24.7262 </r>
       <r>    20.0407     0.8992    24.9755 </r>
       <r>    20.3179     0.6853    25.1654 </r>
       <r>    20.5950     0.7299    25.3677 </r>
       <r>    20.8722     0.3660    25.4691 </r>
       <r>    21.1493     0.6422    25.6471 </r>
       <r>    21.4265     0.4862    25.7819 </r>
       <r>    21.7036     0.8678    26.0224 </r>
       <r>    21.9808     0.6671    26.2073 </r>
       <r>    22.2579     0.6645    26.3914 </r>
       <r>    22.5351     0.8127    26.6167 </r>
       <r>    22.8122     0.3723    26.7199 </r>
       <r>    23.0894     0.7022    26.9145 </r>
       <r>    23.3665     0.6878    27.1051 </r>
       <r>    23.6437     0.5792    27.2656 </r>
       <r>    23.9209     0.6788    27.4538 </r>
       <r>    24.1980     0.3705    27.5564 </r>
       <r>    24.4752     0.7973    27.7774 </r>
       <r>    24.7523     0.3704    27.8801 </r>
       <r>    25.0295     0.6136    28.0502 </r>
       <r>    25.3066     0.7625    28.2615 </r>
       <r>    25.5838     0.4902    28.3974 </r>
       <r>    25.8609     0.6517    28.5780 </r>
       <r>    26.1381     0.6335    28.7536 </r>
       <r>    26.4152     0.5391    28.9030 </r>
       <r>    26.6924     0.9097    29.1551 </r>
       <r>    26.9695     1.1865    29.4840 </r>
       <r>    27.2467     0.7201    29.6835 </r>
       <r>    27.5238     0.8510    29.9194 </r>
       <r>    27.8010     0.6873    30.1099 </r>
       <r>    28.0782     0.5196    30.2539 </r>
       <r>    28.3553     0.9269    30.5108 </r>
       <r>    28.6325     1.0937    30.8139 </r>
       <r>    28.9096     0.9114    31.0665 </r>
       <r>    29.1868     0.8440    31.3004 </r>
       <r>    29.4639     0.8474    31.5353 </r>
       <r>    29.7411     0.7481    31.7426 </r>
       <r>    30.0182     1.1280    32.0552 </r>
       <r>    30.2954     1.0447    32.3448 </r>
       <r>    30.5725     1.0108    32.6249 </r>
       <r>    30.8497     0.4308    32.7443 </r>
       <r>    31.1268     0.4742    32.8758 </r>
       <r>    31.4040     1.2914    33.2337 </r>
       <r>    31.6811     0.8255    33.4625 </r>
       <r>    31.9583     0.5861    33.6249 </r>
       <r>    32.2354     1.1544    33.9449 </r>
       <r>    32.5126     0.9944    34.2205 </r>
       <r>    32.7898     0.2948    34.3022 </r>
       <r>    33.0669     0.5259    34.4479 </r>
       <r>    33.3441     0.9915    34.7227 </r>
       <r>    33.6212     0.6322    34.8980 </r>
       <r>    33.8984     0.4822    35.0316 </r>
       <r>    34.1755     0.7262    35.2329 </r>
       <r>    34.4527     0.6787    35.4210 </r>
       <r>    34.7298     0.7403    35.6262 </r>
       <r>    35.0070     0.5364    35.7748 </r>
       <r>    35.2841     0.6442    35.9534 </r>
       <r>    35.5613     0.5555    36.1073 </r>
       <r>    35.8384     0.6616    36.2907 </r>
       <r>    36.1156     0.7233    36.4911 </r>
       <r>    36.3927     0.7443    36.6974 </r>
       <r>    36.6699     0.6246    36.8706 </r>
       <r>    36.9470     0.8222    37.0984 </r>
       <r>    37.2242     0.5925    37.2627 </r>
       <r>    37.5014     0.6490    37.4425 </r>
       <r>    37.7785     1.0753    37.7405 </r>
       <r>    38.0557     0.7212    37.9404 </r>
       <r>    38.3328     1.1402    38.2564 </r>
       <r>    38.6100     0.6104    38.4256 </r>
       <r>    38.8871     0.8131    38.6509 </r>
       <r>    39.1643     1.1059    38.9574 </r>
       <r>    39.4414     0.8913    39.2045 </r>
       <r>    39.7186     0.6740    39.3913 </r>
       <r>    39.9957     0.6752    39.5784 </r>
       <r>    40.2729     1.4424    39.9782 </r>
       <r>    40.5500     1.0447    40.2677 </r>
       <r>    40.8272     0.7478    40.4749 </r>
       <r>    41.1043     1.1676    40.7985 </r>
       <r>    41.3815     0.6609    40.9817 </r>
       <r>    41.6587     0.7783    41.1974 </r>
       <r>    41.9358     0.7271    41.3989 </r>
       <r>    42.2130     0.4598    41.5264 </r>
       <r>    42.4901     0.7033    41.7213 </r>
       <r>    42.7673     0.9348    41.9804 </r>
       <r>    43.0444     0.6561    42.1622 </r>
       <r>    43.3216     0.5144    42.3048 </r>
       <r>    43.5987     0.6636    42.4887 </r>
       <r>    43.8759     0.9814    42.7607 </r>
       <r>    44.1530     1.2006    43.0935 </r>
       <r>    44.4302     0.5581    43.2481 </r>
       <r>    44.7073     0.8633    43.4874 </r>
       <r>    44.9845     0.7526    43.6960 </r>
       <r>    45.2616     0.4926    43.8325 </r>
       <r>    45.5388     0.7953    44.0529 </r>
       <r>    45.8159     0.6596    44.2357 </r>
       <r>    46.0931     0.7106    44.4327 </r>
       <r>    46.3703     1.1946    44.7638 </r>
       <r>    46.6474     0.9524    45.0277 </r>
       <r>    46.9246     1.0925    45.3305 </r>
       <r>    47.2017     1.2893    45.6878 </r>
       <r>    47.4789     0.8108    45.9125 </r>
       <r>    47.7560     0.9282    46.1698 </r>
       <r>    48.0332     0.8274    46.3991 </r>
       <r>    48.3103     1.1341    46.7134 </r>
       <r>    48.5875     1.3372    47.0840 </r>
       <r>    48.8646     1.1196    47.3943 </r>
       <r>    49.1418     1.0824    47.6943 </r>
       <r>    49.4189     0.7169    47.8930 </r>
       <r>    49.6961     0.9636    48.1601 </r>
       <r>    49.9732     0.9128    48.4130 </r>
       <r>    50.2504     0.9102    48.6653 </r>
       <r>    50.5275     0.8654    48.9051 </r>
       <r>    50.8047     1.0570    49.1981 </r>
       <r>    51.0819     0.6594    49.3808 </r>
       <r>    51.3590     0.5154    49.5237 </r>
       <r>    51.6362     0.6801    49.7122 </r>
       <r>    51.9133     0.9799    49.9838 </r>
       <r>    52.1905     1.1893    50.3134 </r>
       <r>    52.4676     0.8372    50.5454 </r>
       <r>    52.7448     0.8290    50.7752 </r>
       <r>    53.0219     1.0847    51.0758 </r>
       <r>    53.2991     1.1234    51.3871 </r>
       <r>    53.5762     0.8504    51.6228 </r>
       <r>    53.8534     0.7403    51.8280 </r>
       <r>    54.1305     1.1323    52.1418 </r>
       <r>    54.4077     1.0371    52.4292 </r>
       <r>    54.6848     0.9028    52.6795 </r>
       <r>    54.9620     0.7056    52.8750 </r>
       <r>    55.2392     0.8492    53.1104 </r>
       <r>    55.5163     1.5626    53.5434 </r>
       <r>    55.7935     1.4033    53.9323 </r>
       <r>    56.0706     1.0259    54.2167 </r>
       <r>    56.3478     1.3750    54.5978 </r>
       <r>    56.6249     1.1637    54.9203 </r>
       <r>    56.9021     0.5926    55.0845 </r>
       <r>    57.1792     1.1650    55.4074 </r>
       <r>    57.4564     1.6007    55.8511 </r>
       <r>    57.7335     0.6428    56.0292 </r>
       <r>    58.0107     0.9537    56.2935 </r>
       <r>    58.2878     1.0282    56.5785 </r>
       <r>    58.5650     1.2970    56.9380 </r>
       <r>    58.8421     1.4075    57.3280 </r>
       <r>    59.1193     1.4097    57.7187 </r>
       <r>    59.3964     0.9934    57.9941 </r>
       <r>    59.6736     1.2698    58.3460 </r>
       <r>    59.9508     1.4552    58.7493 </r>
       <r>    60.2279     1.6523    59.2073 </r>
       <r>    60.5051     1.5285    59.6309 </r>
       <r>    60.7822     1.3632    60.0087 </r>
       <r>    61.0594     0.9241    60.2648 </r>
       <r>    61.3365     1.8532    60.7784 </r>
       <r>    61.6137     2.1919    61.3859 </r>
       <r>    61.8908     2.3072    62.0254 </r>
       <r>    62.1680     1.6854    62.4925 </r>
       <r>    62.4451     1.7124    62.9671 </r>
       <r>    62.7223     1.6819    63.4332 </r>
       <r>    62.9994     2.1198    64.0207 </r>
       <r>    63.2766     2.7386    64.7797 </r>
       <r>    63.5537     2.8863    65.5797 </r>
       <r>    63.8309     2.4265    66.2522 </r>
       <r>    64.1080     1.9252    66.7857 </r>
       <r>    64.3852     1.9086    67.3147 </r>
       <r>    64.6624     1.3836    67.6982 </r>
       <r>    64.9395     1.1067    68.0049 </r>
       <r>    65.2167     1.8764    68.5249 </r>
       <r>    65.4938     1.5401    68.9518 </r>
       <r>    65.7710     1.5183    69.3726 </r>
       <r>    66.0481     1.0381    69.6603 </r>
       <r>    66.3253     1.6036    70.1047 </r>
       <r>    66.6024     1.5022    70.5211 </r>
       <r>    66.8796     1.1900    70.8509 </r>
       <r>    67.1567     1.4297    71.2472 </r>
       <r>    67.4339     1.3837    71.6307 </r>
       <r>    67.7110     1.2648    71.9812 </r>
       <r>    67.9882     1.5171    72.4017 </r>
       <r>    68.2653     1.4596    72.8062 </r>
       <r>    68.5425     1.3613    73.1835 </r>
       <r>    68.8197     1.2670    73.5346 </r>
       <r>    69.0968     1.0840    73.8351 </r>
       <r>    69.3740     1.1916    74.1653 </r>
       <r>    69.6511     1.7348    74.6461 </r>
       <r>    69.9283     1.9718    75.1926 </r>
       <r>    70.2054     1.5823    75.6312 </r>
       <r>    70.4826     1.2299    75.9721 </r>
       <r>    70.7597     1.0057    76.2508 </r>
       <r>    71.0369     1.4296    76.6470 </r>
       <r>    71.3140     1.5873    77.0869 </r>
       <r>    71.5912     1.6511    77.5445 </r>
       <r>    71.8683     0.7625    77.7559 </r>
       <r>    72.1455     1.1534    78.0755 </r>
       <r>    72.4226     1.1553    78.3957 </r>
       <r>    72.6998     1.1863    78.7245 </r>
       <r>    72.9769     1.1302    79.0377 </r>
       <r>    73.2541     0.9069    79.2891 </r>
       <r>    73.5313     1.0972    79.5932 </r>
       <r>    73.8084     0.5654    79.7499 </r>
       <r>    74.0856     0.6594    79.9326 </r>
       <r>    74.3627     0.1565    79.9760 </r>
       <r>    74.6399     0.0883    80.0005 </r>
       <r>    74.9170    -0.0015    80.0001 </r>
       <r>    75.1942    -0.0003    80.0000 </r>
       <r>    75.4713    -0.0000    80.0000 </r>
       <r>    75.7485    -0.0000    80.0000 </r>
       <r>    76.0256     0.0000    80.0000 </r>
       <r>    76.3028     0.0000    80.0000 </r>
       <r>    76.5799     0.0000    80.0000 </r>
       <r>    76.8571     0.0000    80.0000 </r>
       <r>    77.1342     0.0000    80.0000 </r>
       <r>    77.4114     0.0000    80.0000 </r>
       <r>    77.6885     0.0000    80.0000 </r>
       <r>    77.9657     0.0000    80.0000 </r>
       <r>    78.2429     0.0000    80.0000 </r>
      </set>
     </set>
    </array>
   </total>
  </dos>
 </calculation>
 <structure name="finalpos" >
  <crystal>
   <varray name="basis" >
    <v>       2.26010000       0.00000000       0.00000000 </v>
    <v>      -1.13005000       1.95730402       0.00000000 </v>
    <v>       0.00000000       0.00000000       4.01677000 </v>
   </varray>
   <i name="volume">     17.76899671 </i>
   <varray name="rec_basis" >
    <v>       0.44245830       0.25545342       0.00000000 </v>
    <v>       0.00000000       0.51090684       0.00000000 </v>
    <v>       0.00000000       0.00000000       0.24895625 </v>
   </varray>
  </crystal>
  <varray name="positions" >
   <v>       0.00000000       0.00000000       0.00000000 </v>
   <v>       0.33333333       0.66666667       0.50000000 </v>
  </varray>
 </structure>
</modeling>
