unknown system                          
   1.00000000000000     
     2.306700    0.000000    0.000000
    -1.153350    1.997661    0.000000
     0.000000    0.000000    3.977820
   Fe
     2
Direct
  0.000000  0.000000  0.000000
  0.333333  0.666667  0.500000
 
   20   20   32
  153.68      145.78      124.50      95.791      66.405      41.529      23.907      13.903      9.8533      8.7710    
  8.4564      8.7711      9.8534      13.903      23.907      41.529      66.405      95.791      124.50      145.78    
  145.79      145.78      131.23      106.40      77.728      51.149      30.550      17.423      11.063      9.0440    
  8.4451      8.4448      9.0438      11.063      17.423      30.549      51.147      77.732      106.41      131.24    
  124.50      131.20      124.50      106.40      81.911      56.777      35.550      20.702      12.517      9.3645    
  8.4575      8.1602      8.4569      9.3645      12.517      20.701      35.547      56.775      81.914      106.41    
  95.788      106.33      106.33      95.791      77.728      56.777      37.410      22.681      13.717      9.7289    
  8.4839      7.9523      7.9521      8.4836      9.7295      13.718      22.681      37.407      56.772      77.724    
  66.395      77.623      81.768      77.631      66.405      51.148      35.550      22.681      14.183      9.9815    
  8.5094      7.8277      7.5893      7.8277      8.5094      9.9824      14.185      22.684      35.550      51.143    
  41.528      51.066      56.630      56.633      51.071      41.529      30.550      20.702      13.717      9.9815    
  8.5204      7.7727      7.3821      7.3824      7.7726      8.5193      9.9813      13.720      20.708      30.554    
  23.914      30.528      35.477      37.310      35.474      30.522      23.907      17.423      12.517      9.7288    
  8.5094      7.7728      7.3162      7.1665      7.3168      7.7719      8.5064      9.7259      12.517      17.428    
  13.902      17.447      20.721      22.682      22.679      20.714      17.442      13.903      11.063      9.3645    
  8.4839      7.8278      7.3821      7.1665      7.1672      7.3832      7.8275      8.4807      9.3589      11.058    
  9.8458      11.102      12.588      13.803      14.270      13.801      12.588      11.107      9.8534      9.0440    
  8.4575      7.9524      7.5893      7.3823      7.3168      7.3832      7.5917      7.9553      8.4574      9.0390    
  8.7708      9.0874      9.4505      9.8489      10.120      10.121      9.8524      9.4561      9.0921      8.7710    
  8.4450      8.1603      7.9521      7.8277      7.7727      7.7719      7.8274      7.9552      8.1664      8.4499    
  8.4634      8.4986      8.5522      8.6141      8.6662      8.6884      8.6691      8.6171      8.5517      8.4936    
  8.4563      8.4448      8.4569      8.4836      8.5094      8.5193      8.5064      8.4806      8.4575      8.4499    
  8.7708      8.4986      8.2620      8.0931      7.9981      7.9607      7.9614      7.9983      8.0899      8.2560    
  8.4939      8.7711      9.0438      9.3645      9.7295      9.9824      9.9813      9.7259      9.3589      9.0390    
  9.8457      9.0874      8.5522      8.0931      7.7665      7.5837      7.5266      7.5829      7.7641      8.0902    
  8.5522      9.0924      9.8534      11.063      12.517      13.718      14.185      13.720      12.517      11.058    
  13.902      11.102      9.4505      8.6141      7.9981      7.5837      7.3848      7.3842      7.5827      7.9983    
  8.6173      9.4560      11.106      13.903      17.423      20.701      22.681      22.684      20.708      17.428    
  23.914      17.448      12.588      9.8489      8.6661      7.9607      7.5267      7.3842      7.5261      7.9615    
  8.6691      9.8518      12.588      17.442      23.907      30.549      35.547      37.407      35.550      30.554    
  41.528      30.528      20.721      13.803      10.120      8.6884      7.9614      7.5828      7.5826      7.9616    
  8.6895      10.120      13.800      20.715      30.524      41.529      51.147      56.775      56.772      51.143    
  66.395      51.066      35.477      22.682      14.270      10.121      8.6691      7.9983      7.7641      7.9984    
  8.6691      10.120      14.267      22.679      35.477      51.072      66.405      77.732      81.914      77.724    
  95.788      77.623      56.631      37.310      22.679      13.801      9.8524      8.6171      8.0900      8.0902    
  8.6173      9.8517      13.800      22.679      37.313      56.635      77.628      95.791      106.41      106.41    
  124.50      106.33      81.768      56.633      35.474      20.714      12.588      9.4561      8.5517      8.2560    
  8.5522      9.4560      12.588      20.715      35.477      56.635      81.765      106.32      124.50      131.24    
  145.79      131.20      106.33      77.631      51.071      30.522      17.442      11.107      9.0921      8.4936    
  8.4939      9.0924      11.106      17.443      30.524      51.072      77.628      106.32      131.19      145.78    
  144.52      137.10      117.09      90.078      62.409      39.021      22.542      13.295      9.6256      8.6247    
  8.3183      8.6248      9.6257      13.295      22.542      39.021      62.409      90.078      117.09      137.10    
  137.10      137.10      123.42      100.06      73.058      48.041      28.721      16.514      10.696      8.8766    
  8.2957      8.2954      8.8763      10.696      16.514      28.720      48.040      73.061      100.07      123.43    
  117.10      123.40      117.09      100.06      76.992      53.324      33.387      19.533      11.997      9.1530    
  8.3004      8.0125      8.2998      9.1530      11.998      19.532      33.384      53.322      76.995      100.07    
  90.075      100.00      100.00      90.078      73.058      53.324      35.124      21.361      13.081      9.4657    
  8.3219      7.8079      7.8077      8.3216      9.4662      13.082      21.361      35.121      53.320      73.054    
  62.400      72.984      76.891      72.991      62.409      48.041      33.387      21.361      13.503      9.6843    
  8.3445      7.6861      7.4573      7.6861      8.3446      9.6850      13.505      21.364      33.387      48.036    
  39.020      47.995      53.237      53.239      47.999      39.021      28.721      19.533      13.081      9.6842    
  8.3541      7.6325      7.2584      7.2586      7.6324      8.3532      9.6840      13.084      19.539      28.725    
  22.549      28.734      33.377      35.099      33.374      28.729      22.542      16.514      11.997      9.4656    
  8.3446      7.6325      7.1953      7.0526      7.1958      7.6317      8.3419      9.4630      11.998      16.519    
  13.295      16.570      19.612      21.441      21.438      19.606      16.565      13.295      10.696      9.1530    
  8.3219      7.6861      7.2584      7.0526      7.0532      7.2594      7.6858      8.3189      9.1478      10.691    
  9.6186      10.763      12.125      13.242      13.673      13.240      12.125      10.768      9.6256      8.8766    
  8.3004      7.8080      7.4573      7.2586      7.1959      7.2594      7.4595      7.8106      8.3004      8.8719    
  8.6245      8.9469      9.2912      9.6581      9.9066      9.9076      9.6613      9.2963      8.9513      8.6247    
  8.2957      8.0125      7.8077      7.6861      7.6324      7.6317      7.6858      7.8106      8.0182      8.3001    
  8.3248      8.3748      8.4454      8.5232      8.5864      8.6120      8.5891      8.5259      8.4449      8.3702    
  8.3182      8.2954      8.2998      8.3216      8.3446      8.3532      8.3418      8.3189      8.3004      8.3001    
  8.6244      8.3748      8.1638      8.0190      7.9425      7.9150      7.9156      7.9426      8.0160      8.1582    
  8.3705      8.6248      8.8763      9.1530      9.4662      9.6850      9.6840      9.4630      9.1479      8.8719    
  9.6185      8.9469      8.4455      8.0190      7.7207      7.5566      7.5060      7.5559      7.7185      8.0163    
  8.4454      8.9515      9.6257      10.696      11.998      13.082      13.505      13.084      11.998      10.691    
  13.295      10.763      9.2912      8.5232      7.9424      7.5566      7.3731      7.3726      7.5556      7.9427    
  8.5261      9.2963      10.767      13.295      16.514      19.532      21.361      21.364      19.539      16.519    
  22.549      16.570      12.125      9.6581      8.5864      7.9150      7.5060      7.3726      7.5055      7.9157    
  8.5891      9.6607      12.124      16.565      22.542      28.720      33.384      35.121      33.387      28.725    
  39.020      28.734      19.612      13.242      9.9067      8.6120      7.9156      7.5558      7.5556      7.9157    
  8.6130      9.9069      13.239      19.607      28.730      39.021      48.040      53.322      53.320      48.036    
  62.400      47.995      33.377      21.441      13.673      9.9076      8.5891      7.9426      7.7185      7.9427    
  8.5891      9.9069      13.671      21.439      33.377      48.000      62.409      73.061      76.995      73.054    
  90.075      72.984      53.237      35.099      21.438      13.240      9.6613      8.5259      8.0161      8.0163    
  8.5261      9.6607      13.239      21.439      35.102      53.241      72.988      90.078      100.07      100.07    
  117.10      100.00      76.891      53.239      33.374      19.606      12.125      9.2963      8.4450      8.1582    
  8.4454      9.2962      12.124      19.607      33.377      53.241      76.889      99.995      117.09      123.43    
  137.10      123.40      100.00      72.991      47.999      28.729      16.565      10.768      8.9513      8.3702    
  8.3705      8.9515      10.767      16.565      28.730      48.000      72.988      99.995      123.39      137.10    
  120.21      114.05      97.403      74.873      51.794      32.410      19.006      11.764      9.0549      8.2277    
  7.9462      8.2278      9.0550      11.764      19.005      32.410      51.794      74.873      97.403      114.05    
  114.05      114.05      102.66      83.180      60.634      39.814      23.939      14.192      9.7821      8.4297    
  7.8950      7.8947      8.4295      9.7823      14.192      23.938      39.813      60.637      83.187      102.67    
  97.408      102.66      97.403      83.180      63.904      44.168      27.703      16.520      10.695      8.6141    
  7.8771      7.6168      7.8765      8.6140      10.696      16.520      27.701      44.166      63.906      83.186    
  74.871      83.177      83.178      74.873      60.634      44.168      29.111      17.947      11.476      8.8046    
  7.8820      7.4194      7.4192      7.8818      8.8050      11.477      17.947      29.109      44.164      60.631    
  51.787      60.643      63.916      60.648      51.794      39.814      27.703      17.947      11.784      8.9399    
  7.8944      7.3026      7.1010      7.3027      7.8945      8.9403      11.785      17.949      27.703      39.810    
  32.410      39.864      44.236      44.238      39.867      32.410      23.939      16.521      11.476      8.9398    
  7.9005      7.2512      6.9228      6.9231      7.2513      7.8998      8.9396      11.478      16.525      23.942    
  19.011      24.043      27.861      29.284      27.859      24.039      19.005      14.192      10.695      8.8046    
  7.8945      7.2512      6.8666      6.7425      6.8671      7.2507      7.8924      8.8026      10.696      14.196    
  11.764      14.329      16.756      18.229      18.227      16.751      14.325      11.764      9.7821      8.6141    
  7.8821      7.3027      6.9228      6.7425      6.7429      6.9235      7.3024      7.8798      8.6101      9.7786    
  9.0494      9.9213      10.962      11.827      12.162      11.825      10.962      9.9250      9.0549      8.4297    
  7.8771      7.4194      7.1010      6.9230      6.8671      6.9235      7.1026      7.4214      7.8770      8.4260    
  8.2275      8.5658      8.8796      9.1735      9.3662      9.3669      9.1759      8.8835      8.5693      8.2277    
  7.8949      7.6168      7.4192      7.3027      7.2513      7.2508      7.3024      7.4214      7.6213      7.8984    
  7.9513      8.0355      8.1421      8.2518      8.3364      8.3693      8.3384      8.2537      8.1417      8.0319    
  7.9462      7.8947      7.8765      7.8818      7.8945      7.8998      7.8924      7.8797      7.8771      7.8985    
  8.2275      8.0355      7.8847      7.7933      7.7553      7.7475      7.7481      7.7556      7.7910      7.8804    
  8.0321      8.2277      8.4295      8.6140      8.8050      8.9403      8.9396      8.8026      8.6101      8.4260    
  9.0493      8.5658      8.1422      7.7933      7.5586      7.4347      7.3977      7.4343      7.5570      7.7912    
  8.1421      8.5695      9.0550      9.7823      10.696      11.477      11.785      11.478      10.696      9.7786    
  11.764      9.9213      8.8796      8.2518      7.7553      7.4347      7.2854      7.2850      7.4340      7.7555    
  8.2540      8.8835      9.9247      11.764      14.192      16.520      17.947      17.949      16.525      14.196    
  19.011      14.329      10.962      9.1734      8.3364      7.7476      7.3977      7.2850      7.3972      7.7480    
  8.3384      9.1755      10.961      14.325      19.005      23.938      27.701      29.109      27.703      23.942    
  32.410      24.043      16.756      11.827      9.3662      8.3693      7.7481      7.4342      7.4340      7.7480    
  8.3700      9.3664      11.824      16.751      24.040      32.410      39.813      44.166      44.165      39.810    
  51.787      39.864      27.861      18.229      12.162      9.3669      8.3384      7.7555      7.5570      7.7556    
  8.3384      9.3664      12.161      18.227      27.861      39.868      51.794      60.637      63.906      60.631    
  74.871      60.643      44.236      29.284      18.227      11.825      9.1758      8.2537      7.7910      7.7913    
  8.2540      9.1754      11.824      18.227      29.286      44.240      60.646      74.873      83.187      83.186    
  97.408      83.177      63.916      44.238      27.859      16.751      10.962      8.8836      8.1417      7.8803    
  8.1421      8.8835      10.961      16.751      27.861      44.240      63.914      83.171      97.403      102.67    
  114.05      102.66      83.178      60.648      39.867      24.039      14.325      9.9250      8.5693      8.0318    
  8.0321      8.5695      9.9248      14.325      24.040      39.868      60.646      83.171      102.65      114.05    
  88.468      83.921      71.620      54.963      37.987      23.980      14.670      9.9979      8.3704      7.6881    
  7.4477      7.6882      8.3705      9.9979      14.670      23.980      37.987      54.964      71.620      83.921    
  83.923      83.921      75.495      61.069      44.415      29.215      17.959      11.435      8.7401      7.8191    
  7.3597      7.3595      7.8189      8.7404      11.435      17.958      29.214      44.416      61.073      75.500    
  71.623      75.521      71.620      61.069      46.799      32.323      20.522      12.874      9.2013      7.9325    
  7.3067      7.0895      7.3062      7.9324      9.2017      12.874      20.520      32.321      46.800      61.072    
  54.962      61.134      61.134      54.964      44.415      32.323      21.489      13.776      9.6134      8.0140    
  7.2818      6.8976      6.8974      7.2815      8.0142      9.6138      13.776      21.488      32.320      44.413    
  37.983      44.530      46.958      44.533      37.987      29.215      20.522      13.776      9.7800      8.0647    
  7.2737      6.7822      6.6193      6.7823      7.2738      8.0648      9.7808      13.777      20.522      29.212    
  23.980      29.386      32.590      32.591      29.389      23.980      17.959      12.874      9.6134      8.0646    
  7.2724      6.7301      6.4650      6.4653      6.7303      7.2721      8.0645      9.6148      12.877      17.961    
  14.674      18.177      20.889      21.909      20.888      18.175      14.670      11.435      9.2013      8.0140    
  7.2737      6.7301      6.4165      6.3171      6.4170      6.7299      7.2725      8.0128      9.2017      11.437    
  9.9976      11.670      13.300      14.308      14.306      13.297      11.668      9.9979      8.7402      7.9325    
  7.2818      6.7822      6.4650      6.3171      6.3173      6.4654      6.7820      7.2803      7.9299      8.7379    
  8.3667      8.9656      9.6351      10.192      10.410      10.191      9.6351      8.9681      8.3704      7.8191    
  7.3067      6.8976      6.6192      6.4653      6.4170      6.4654      6.6200      6.8988      7.3066      7.8167    
  7.6880      8.0327      8.3475      8.5891      8.7288      8.7292      8.5905      8.3500      8.0350      7.6881    
  7.3597      7.0895      6.8974      6.7822      6.7303      6.7299      6.7819      6.8988      7.0924      7.3620    
  7.4510      7.5709      7.7090      7.8423      7.9408      7.9778      7.9420      7.8435      7.7086      7.5685    
  7.4477      7.3595      7.3062      7.2815      7.2737      7.2721      7.2725      7.2803      7.3067      7.3620    
  7.6879      7.5709      7.4891      7.4513      7.4475      7.4553      7.4557      7.4477      7.4499      7.4863    
  7.5687      7.6882      7.8189      7.9324      8.0141      8.0648      8.0645      8.0128      7.9300      7.8167    
  8.3667      8.0327      7.7091      7.4513      7.2839      7.1988      7.1741      7.1987      7.2831      7.4501    
  7.7091      8.0352      8.3705      8.7404      9.2017      9.6138      9.7809      9.6149      9.2017      8.7379    
  9.9976      8.9657      8.3476      7.8423      7.4474      7.1988      7.0849      7.0847      7.1984      7.4476    
  7.8437      8.3500      8.9679      9.9979      11.435      12.874      13.776      13.777      12.877      11.437    
  14.674      11.670      9.6351      8.5891      7.9408      7.4553      7.1742      7.0847      7.1737      7.4554    
  7.9420      8.5903      9.6347      11.668      14.670      17.958      20.520      21.488      20.522      17.961    
  23.980      18.177      13.300      10.192      8.7288      7.9778      7.4557      7.1987      7.1984      7.4554    
  7.9782      8.7290      10.191      13.297      18.175      23.980      29.214      32.321      32.320      29.212    
  37.983      29.386      20.889      14.308      10.410      8.7292      7.9420      7.4477      7.2831      7.4477    
  7.9420      8.7290      10.409      14.307      20.889      29.389      37.987      44.416      46.800      44.413    
  54.962      44.530      32.590      21.909      14.306      10.191      8.5905      7.8435      7.4499      7.4501    
  7.8437      8.5903      10.191      14.307      21.911      32.592      44.532      54.964      61.073      61.072    
  71.623      61.134      46.958      32.591      20.888      13.297      9.6351      8.3500      7.7087      7.4863    
  7.7090      8.3500      9.6347      13.297      20.889      32.592      46.956      61.130      71.620      75.500    
  83.923      75.521      61.134      44.533      29.389      18.175      11.668      8.9681      8.0350      7.5685    
  7.5687      8.0352      8.9679      11.668      18.175      29.389      44.532      61.130      75.516      83.921    
  57.539      54.563      46.523      35.710      24.887      16.300      10.999      8.6206      7.6910      7.1353    
  6.9473      7.1353      7.6911      8.6206      10.999      16.300      24.887      35.710      46.523      54.563    
  54.564      54.563      49.037      39.618      28.881      19.364      12.709      9.2156      7.8757      7.1809    
  6.8197      6.8196      7.1807      7.8760      9.2161      12.709      19.364      28.882      39.620      49.040    
  46.525      49.086      46.523      39.618      30.375      21.218      14.096      9.8510      8.0232      7.2209    
  6.7238      6.5580      6.7234      7.2208      8.0235      9.8512      14.096      21.218      30.375      39.619    
  35.709      39.743      39.743      35.710      28.881      21.218      14.630      10.267      8.1477      7.2464    
  6.6593      6.3667      6.3665      6.6591      7.2463      8.1478      10.267      14.629      21.217      28.880    
  24.884      29.090      30.663      29.092      24.887      19.364      14.096      10.267      8.1995      7.2574    
  6.6228      6.2460      6.1249      6.2462      6.6229      7.2573      8.1997      10.268      14.096      19.363    
  16.300      19.642      21.661      21.661      19.643      16.300      12.709      9.8511      8.1477      7.2574    
  6.6111      6.1889      5.9899      5.9902      6.1892      6.6111      7.2573      8.1483      9.8526      12.710    
  11.001      13.028      14.648      15.266      14.647      13.027      10.999      9.2156      8.0231      7.2464    
  6.6229      6.1889      5.9471      5.8716      5.9475      6.1889      6.6224      7.2459      8.0235      9.2170    
  8.6204      9.5392      10.448      11.020      11.019      10.446      9.5383      8.6206      7.8757      7.2209    
  6.6593      6.2460      5.9899      5.8716      5.8717      5.9900      6.2459      6.6586      7.2197      7.8746    
  7.6891      8.1823      8.6118      8.9358      9.0594      8.9352      8.6118      8.1836      7.6910      7.1809    
  6.7238      6.3667      6.1248      5.9902      5.9475      5.9900      6.1250      6.3672      6.7238      7.1796    
  7.1352      7.4704      7.7816      8.0213      8.1513      8.1513      8.0218      7.7827      7.4715      7.1353    
  6.8197      6.5580      6.3665      6.2461      6.1892      6.1890      6.2459      6.3672      6.5595      6.8209    
  6.9490      7.1016      7.2635      7.4113      7.5164      7.5548      7.5169      7.4117      7.2632      7.1003    
  6.9473      6.8196      6.7235      6.6590      6.6229      6.6111      6.6223      6.6586      6.7238      6.8209    
  7.1351      7.1015      7.0910      7.1047      7.1315      7.1523      7.1526      7.1317      7.1041      7.0895    
  7.1005      7.1353      7.1808      7.2208      7.2463      7.2573      7.2573      7.2459      7.2198      7.1796    
  7.6890      7.4704      7.2636      7.1047      7.0065      6.9596      6.9468      6.9598      7.0063      7.1042    
  7.2636      7.4716      7.6911      7.8760      8.0235      8.1478      8.1997      8.1484      8.0235      7.8746    
  8.6204      8.1823      7.7817      7.4113      7.1314      6.9596      6.8822      6.8822      6.9595      7.1316    
  7.4119      7.7828      8.1834      8.6206      9.2161      9.8512      10.267      10.268      9.8526      9.2170    
  11.001      9.5393      8.6118      8.0213      7.5164      7.1523      6.9469      6.8822      6.9465      7.1522    
  7.5169      8.0218      8.6114      9.5379      10.999      12.709      14.096      14.629      14.096      12.710    
  16.300      13.028      10.448      8.9358      8.1513      7.5549      7.1526      6.9597      6.9595      7.1523    
  7.5549      8.1514      8.9351      10.446      13.026      16.300      19.364      21.218      21.217      19.363    
  24.884      19.642      14.648      11.020      9.0594      8.1514      7.5169      7.1317      7.0063      7.1316    
  7.5169      8.1514      9.0592      11.020      14.648      19.644      24.887      28.882      30.376      28.880    
  35.709      29.090      21.661      15.266      11.019      8.9352      8.0218      7.4117      7.1041      7.1042    
  7.4119      8.0218      8.9351      11.020      15.267      21.662      29.091      35.710      39.620      39.619    
  46.525      39.743      30.663      21.661      14.647      10.446      8.6118      7.7827      7.2632      7.0895    
  7.2635      7.7828      8.6114      10.446      14.648      21.662      30.663      39.741      46.523      49.040    
  54.564      49.086      39.743      29.092      19.643      13.027      9.5383      8.1836      7.4715      7.1003    
  7.1005      7.4716      8.1834      9.5379      13.026      19.644      29.091      39.741      49.083      54.563    
  33.167      31.481      26.965      21.017      15.305      11.099      8.7850      7.7545      7.0815      6.6724    
  6.5391      6.6724      7.0815      7.7545      8.7850      11.099      15.305      21.017      26.965      31.481    
  31.481      31.481      28.353      23.100      17.298      12.448      9.3731      7.9218      7.1559      6.6283    
  6.3699      6.3698      6.6282      7.1560      7.9223      9.3734      12.448      17.298      23.100      28.354    
  26.965      28.414      26.965      23.100      18.057      13.295      9.8854      8.0703      7.2010      6.5908    
  6.2299      6.1137      6.2297      6.5907      7.2013      8.0705      9.8854      13.295      18.057      23.100    
  21.016      23.260      23.260      21.017      17.298      13.295      10.090      8.1711      7.2192      6.5601    
  6.1249      5.9184      5.9183      6.1247      6.5599      7.2191      8.1709      10.089      13.295      17.298    
  15.304      17.561      18.418      17.561      15.305      12.448      9.8854      8.1711      7.2229      6.5419    
  6.0595      5.7885      5.7035      5.7886      6.0595      6.5417      7.2227      8.1711      9.8854      12.447    
  11.099      12.789      13.839      13.840      12.789      11.099      9.3731      8.0703      7.2192      6.5418    
  6.0372      5.7240      5.5802      5.5804      5.7243      6.0372      6.5418      7.2193      8.0708      9.3737    
  8.7855      9.7558      10.551      10.860      10.551      9.7555      8.7850      7.9219      7.2010      6.5600    
  6.0595      5.7240      5.5403      5.4832      5.5405      5.7241      6.0594      6.5600      7.2013      7.9224    
  7.7543      8.3113      8.7879      9.0776      9.0775      8.7876      8.3112      7.7545      7.1559      6.5908    
  6.1249      5.7885      5.5802      5.4832      5.4831      5.5801      5.7884      6.1247      6.5905      7.1555    
  7.0808      7.5341      7.9210      8.1801      8.2709      8.1799      7.9210      7.5346      7.0815      6.6283    
  6.2299      5.9184      5.7035      5.5804      5.5405      5.5802      5.7033      5.9185      6.2299      6.6279    
  6.6723      6.9935      7.2942      7.5288      7.6575      7.6574      7.5287      7.2944      6.9938      6.6724    
  6.3699      6.1137      5.9183      5.7886      5.7243      5.7241      5.7884      5.9185      6.1142      6.3703    
  6.5396      6.7279      6.9180      7.0853      7.2014      7.2431      7.2014      7.0853      6.9178      6.7275    
  6.5391      6.3698      6.2297      6.1247      6.0595      6.0373      6.0594      6.1247      6.2299      6.3703    
  6.6723      6.7279      6.7963      6.8716      6.9386      6.9788      6.9790      6.9388      6.8714      6.7959    
  6.7275      6.6724      6.6282      6.5907      6.5599      6.5417      6.5418      6.5600      6.5905      6.6279    
  7.0808      6.9935      6.9180      6.8716      6.8553      6.8565      6.8595      6.8568      6.8555      6.8715    
  6.9180      6.9939      7.0815      7.1560      7.2012      7.2191      7.2227      7.2193      7.2013      7.1555    
  7.7543      7.5342      7.2942      7.0853      6.9386      6.8565      6.8231      6.8232      6.8566      6.9387    
  7.0854      7.2944      7.5345      7.7545      7.9223      8.0705      8.1710      8.1711      8.0708      7.9224    
  8.7855      8.3114      7.9210      7.5288      7.2014      6.9788      6.8595      6.8231      6.8592      6.9786    
  7.2014      7.5289      7.9208      8.3108      8.7850      9.3734      9.8854      10.089      9.8854      9.3737    
  11.099      9.7558      8.7878      8.1801      7.6575      7.2431      6.9790      6.8568      6.8566      6.9786    
  7.2430      7.6576      8.1800      8.7873      9.7552      11.099      12.448      13.295      13.295      12.447    
  15.304      12.789      10.551      9.0777      8.2709      7.6575      7.2014      6.9388      6.8555      6.9387    
  7.2014      7.6576      8.2711      9.0777      10.551      12.789      15.305      17.298      18.057      17.298    
  21.016      17.561      13.839      10.860      9.0775      8.1799      7.5287      7.0853      6.8714      6.8715    
  7.0854      7.5289      8.1800      9.0777      10.861      13.840      17.561      21.017      23.100      23.100    
  26.965      23.260      18.418      13.840      10.551      8.7876      7.9210      7.2944      6.9178      6.7959    
  6.9180      7.2944      7.9208      8.7873      10.551      13.840      18.418      23.259      26.965      28.354    
  31.481      28.414      23.260      17.561      12.789      9.7555      8.3112      7.5347      6.9938      6.7274    
  6.7275      6.9939      7.5345      8.3108      9.7552      12.789      17.561      23.259      28.414      31.481    
  17.672      16.907      14.898      12.365      10.110      8.6129      7.7609      7.1069      6.6311      6.3590    
  6.2728      6.3590      6.6311      7.1068      7.7608      8.6129      10.110      12.365      14.898      16.907    
  16.907      16.907      15.491      13.186      10.787      8.9568      7.8735      7.1557      6.5926      6.2291    
  6.0584      6.0584      6.2291      6.5927      7.1560      7.8737      8.9569      10.787      13.186      15.491    
  14.898      15.553      14.898      13.187      11.055      9.1886      7.9550      7.1797      6.5583      6.1216    