unknown system                          
   1.00000000000000     
     2.306700    0.000000    0.000000
    -1.153350    1.997661    0.000000
     0.000000    0.000000    3.977820
   Fe
     2
Direct
  0.000000  0.000000  0.000000
  0.333333  0.666667  0.500000
 
   20   20   32
 0.15368394184E+03 0.14578367109E+03 0.12449678402E+03 0.95791113558E+02 0.66405028955E+02
 0.41528662805E+02 0.23907103063E+02 0.13902631852E+02 0.98533208139E+01 0.87710138484E+01
 0.84563560133E+01 0.87711191877E+01 0.98534133811E+01 0.13902623603E+02 0.23907039438E+02
 0.41528652380E+02 0.66405101042E+02 0.95791192010E+02 0.12449679904E+03 0.14578364638E+03
 0.14578841227E+03 0.14578362858E+03 0.13122700206E+03 0.10640100234E+03 0.77728425126E+02
 0.51148507840E+02 0.30549992188E+02 0.17423056782E+02 0.11063181315E+02 0.90440436866E+01
 0.84450817061E+01 0.84448047710E+01 0.90437680360E+01 0.11063414289E+02 0.17422901296E+02
 0.30548507784E+02 0.51147395383E+02 0.77731587732E+02 0.10641002540E+03 0.13123763098E+03
 0.12450384923E+03 0.13120007298E+03 0.12449679636E+03 0.10640104437E+03 0.81911412500E+02
 0.56776828048E+02 0.35550302201E+02 0.20702238800E+02 0.12516734886E+02 0.93644958848E+01
 0.84575127372E+01 0.81602477885E+01 0.84568817435E+01 0.93644661168E+01 0.12517275573E+02
 0.20701416016E+02 0.35547337907E+02 0.56774694279E+02 0.81914329389E+02 0.10640894991E+03
 0.95787997654E+02 0.10632616016E+03 0.10632723126E+03 0.95791193751E+02 0.77728404810E+02
 0.56776791449E+02 0.37409565111E+02 0.22680828187E+02 0.13717305173E+02 0.97288509582E+01
 0.84838717751E+01 0.79523446725E+01 0.79520687219E+01 0.84836405228E+01 0.97295045879E+01
 0.13718383606E+02 0.22680601340E+02 0.37406776892E+02 0.56772047260E+02 0.77723627488E+02
 0.66395047536E+02 0.77623374919E+02 0.81768371471E+02 0.77631278200E+02 0.66405030255E+02
 0.51148436207E+02 0.35550331796E+02 0.22680858193E+02 0.14182859401E+02 0.99815381589E+01
 0.85093723998E+01 0.78277340108E+01 0.75893097647E+01 0.78277290357E+01 0.85094248077E+01
 0.99823741135E+01 0.14185277975E+02 0.22683795696E+02 0.35550341222E+02 0.51142629495E+02
 0.41527552338E+02 0.51066456829E+02 0.56630487911E+02 0.56633121233E+02 0.51071193712E+02
 0.41528627631E+02 0.30550004343E+02 0.20702300512E+02 0.13717269321E+02 0.99815146390E+01
 0.85203652543E+01 0.77727499120E+01 0.73821405576E+01 0.73823529819E+01 0.77726162462E+01
 0.85192858169E+01 0.99812740718E+01 0.13720477920E+02 0.20708357433E+02 0.30554373714E+02
 0.23914089629E+02 0.30527870360E+02 0.35476788523E+02 0.37310244557E+02 0.35473838507E+02
 0.30522068038E+02 0.23907072779E+02 0.17423094295E+02 0.12516712502E+02 0.97287997252E+01
 0.85094115822E+01 0.77727674745E+01 0.73162449978E+01 0.71665453890E+01 0.73167586586E+01
 0.77719154494E+01 0.85064214923E+01 0.97259109870E+01 0.12517275573E+02 0.17428066428E+02
 0.13902397035E+02 0.17447481879E+02 0.20720756082E+02 0.22682108289E+02 0.22678946960E+02
 0.20713873275E+02 0.17442338589E+02 0.13902616711E+02 0.11063203630E+02 0.93644578127E+01
 0.84838998745E+01 0.78277733879E+01 0.73820965671E+01 0.71665313388E+01 0.71671712020E+01
 0.73832264555E+01 0.78275024676E+01 0.84806727348E+01 0.93588513094E+01 0.11058421833E+02
 0.98457974059E+01 0.11101685912E+02 0.12588344079E+02 0.13802731334E+02 0.14269680902E+02
 0.13800652103E+02 0.12588330309E+02 0.11106619670E+02 0.98533583324E+01 0.90440462324E+01
 0.84574943490E+01 0.79523766742E+01 0.75892753876E+01 0.73823231352E+01 0.73168107821E+01
 0.73832405993E+01 0.75917472958E+01 0.79552630780E+01 0.84574475278E+01 0.90390021483E+01
 0.87708273608E+01 0.90873832252E+01 0.94504796980E+01 0.98488748379E+01 0.10120086993E+02
 0.10121173621E+02 0.98524429928E+01 0.94560751003E+01 0.90921206910E+01 0.87710498683E+01
 0.84450406682E+01 0.81602503160E+01 0.79520848473E+01 0.78277081291E+01 0.77726600565E+01
 0.77719416972E+01 0.78274421838E+01 0.79552472017E+01 0.81663809909E+01 0.84498624857E+01
 0.84634062041E+01 0.84985887216E+01 0.85521594060E+01 0.86141317170E+01 0.86661545079E+01
 0.86883521368E+01 0.86690927726E+01 0.86170723789E+01 0.85516602116E+01 0.84936125901E+01
 0.84563421215E+01 0.84447794960E+01 0.84569285647E+01 0.84836426516E+01 0.85094115822E+01
 0.85192958674E+01 0.85063690844E+01 0.84806467642E+01 0.84575127372E+01 0.84498782486E+01
 0.87707610173E+01 0.84985765962E+01 0.82620407194E+01 0.80931106525E+01 0.79981100524E+01
 0.79607347304E+01 0.79614090941E+01 0.79982964104E+01 0.80899329770E+01 0.82560002268E+01
 0.84938960760E+01 0.87710888641E+01 0.90437934012E+01 0.93644840757E+01 0.97294518012E+01
 0.99823618496E+01 0.99812853277E+01 0.97259094332E+01 0.93589073404E+01 0.90390249677E+01
 0.98457428339E+01 0.90873692967E+01 0.85522228591E+01 0.80931160601E+01 0.77665129015E+01
 0.75836998719E+01 0.75266075413E+01 0.75828713736E+01 0.77641016705E+01 0.80901858081E+01
 0.85521880007E+01 0.90924125179E+01 0.98533963276E+01 0.11063430198E+02 0.12517240291E+02
 0.13718369362E+02 0.14185334927E+02 0.13720499529E+02 0.12517262675E+02 0.11058415427E+02
 0.13902414866E+02 0.11101700641E+02 0.94505290106E+01 0.86141323275E+01 0.79980544260E+01
 0.75837028412E+01 0.73847870131E+01 0.73841942141E+01 0.75826543874E+01 0.79983322553E+01
 0.86172587103E+01 0.94560002596E+01 0.11106402683E+02 0.13902626292E+02 0.17422912037E+02
 0.20701417457E+02 0.22680641207E+02 0.22683805557E+02 0.20708297162E+02 0.17428039656E+02
 0.23914153253E+02 0.17447509282E+02 0.12588321312E+02 0.98488530294E+01 0.86661140774E+01
 0.79607489733E+01 0.75266510102E+01 0.73841837006E+01 0.75260797522E+01 0.79615425892E+01
 0.86690927726E+01 0.98517648397E+01 0.12587764525E+02 0.17442498348E+02 0.23907072779E+02
 0.30548517975E+02 0.35547328481E+02 0.37406757081E+02 0.35550302201E+02 0.30554371749E+02
 0.41527588028E+02 0.30527862737E+02 0.20720691995E+02 0.13802708192E+02 0.10120112103E+02
 0.86883777285E+01 0.79614374247E+01 0.75828450498E+01 0.75826250942E+01 0.79615566769E+01
 0.86894575692E+01 0.10120390670E+02 0.13799577325E+02 0.20714721485E+02 0.30523542060E+02
 0.41528652895E+02 0.51147361429E+02 0.56774671870E+02 0.56772061450E+02 0.51142667175E+02
 0.66395025462E+02 0.51066405853E+02 0.35476758210E+02 0.22682125092E+02 0.14269738894E+02
 0.10121186881E+02 0.86690673794E+01 0.79982714122E+01 0.77640873886E+01 0.79983628836E+01
 0.86691078099E+01 0.10120378820E+02 0.14267293384E+02 0.22679173528E+02 0.35476791809E+02
 0.51072293754E+02 0.66405080269E+02 0.77731599166E+02 0.81914365802E+02 0.77723659238E+02
 0.95787956525E+02 0.77623337799E+02 0.56630517047E+02 0.37310300745E+02 0.22678968059E+02
 0.13800625937E+02 0.98523963885E+01 0.86170723742E+01 0.80899590273E+01 0.80902064507E+01
 0.86172580951E+01 0.98517400439E+01 0.13799574301E+02 0.22679177824E+02 0.37313002344E+02
 0.56635178224E+02 0.77628121167E+02 0.95791231074E+02 0.10641004278E+03 0.10640892526E+03
 0.12450383421E+03 0.10632619316E+03 0.81768415029E+02 0.56633157816E+02 0.35473804908E+02
 0.20713819416E+02 0.12588321312E+02 0.94561098264E+01 0.85516950699E+01 0.82559900862E+01
 0.85521594060E+01 0.94559856731E+01 0.12587778295E+02 0.20714731712E+02 0.35476788523E+02
 0.56635185672E+02 0.81765368156E+02 0.10631823910E+03 0.12449679636E+03 0.13123756575E+03
 0.14578841962E+03 0.13120015312E+03 0.10632724243E+03 0.77631243365E+02 0.51071154386E+02
 0.30522039426E+02 0.17442374422E+02 0.11106666161E+02 0.90921178297E+01 0.84935752321E+01
 0.84938708434E+01 0.90924235852E+01 0.11106434445E+02 0.17442506778E+02 0.30523521072E+02
 0.51072305404E+02 0.77628123452E+02 0.10631821728E+03 0.13118948307E+03 0.14578361123E+03
 0.14451904653E+03 0.13709899396E+03 0.11709040534E+03 0.90077831526E+02 0.62409357793E+02
 0.39021187503E+02 0.22542297262E+02 0.13294820178E+02 0.96255855065E+01 0.86246898904E+01
 0.83182540302E+01 0.86247912530E+01 0.96256749686E+01 0.13294812725E+02 0.22542235388E+02
 0.39021174927E+02 0.62409423803E+02 0.90077904981E+02 0.11709041994E+03 0.13709897118E+03
 0.13710337484E+03 0.13709895234E+03 0.12341606950E+03 0.10005789692E+03 0.73058007709E+02
 0.48040934979E+02 0.28720981156E+02 0.16513917206E+02 0.10695749583E+02 0.88765903742E+01
 0.82957170826E+01 0.82954483287E+01 0.88763227677E+01 0.10695994515E+02 0.16513847000E+02
 0.28719680078E+02 0.48039932175E+02 0.73060914861E+02 0.10006621506E+03 0.12342588727E+03
 0.11709693744E+03 0.12339626893E+03 0.11709041706E+03 0.10005793781E+03 0.76992229970E+02
 0.53324161695E+02 0.33386521275E+02 0.19533161356E+02 0.11997312526E+02 0.91530376985E+01
 0.83004135088E+01 0.80125109142E+01 0.82997952778E+01 0.91529903304E+01 0.11997843790E+02
 0.19532460299E+02 0.33383814968E+02 0.53322176245E+02 0.76994894555E+02 0.10006522946E+03
 0.90074967096E+02 0.10000232849E+03 0.10000331177E+03 0.90077909528E+02 0.73057988070E+02
 0.53324126215E+02 0.35123626142E+02 0.21361376799E+02 0.13081248511E+02 0.94656501456E+01
 0.83218564269E+01 0.78079206014E+01 0.78076537969E+01 0.83216143025E+01 0.94662221708E+01
 0.13082215643E+02 0.21361138408E+02 0.35121022228E+02 0.53319724871E+02 0.73053573315E+02
 0.62400162159E+02 0.72983721139E+02 0.76891321606E+02 0.72991011482E+02 0.62409359303E+02
 0.48040865586E+02 0.33386550194E+02 0.21361405946E+02 0.13503179641E+02 0.96842640880E+01
 0.83445470007E+01 0.76860657237E+01 0.74573406636E+01 0.76860804316E+01 0.83445977464E+01
 0.96849958624E+01 0.13505349768E+02 0.21364076294E+02 0.33386559112E+02 0.48035528514E+02
 0.39020186702E+02 0.47995031757E+02 0.53236524097E+02 0.53238962638E+02 0.47999408758E+02
 0.39021153583E+02 0.28720993127E+02 0.19533221318E+02 0.13081213645E+02 0.96842412460E+01
 0.83541247321E+01 0.76324554990E+01 0.72584240037E+01 0.72586488501E+01 0.76323872272E+01
 0.83531555548E+01 0.96840076373E+01 0.13084165304E+02 0.19538837784E+02 0.28725071964E+02
 0.22548752887E+02 0.28733926657E+02 0.33376857811E+02 0.35099339111E+02 0.33374161612E+02
 0.28728593141E+02 0.22542267840E+02 0.16513953649E+02 0.11997290684E+02 0.94656003085E+01
 0.83445848214E+01 0.76324724254E+01 0.71953197338E+01 0.70525905473E+01 0.71958242557E+01
 0.76317240368E+01 0.83418536018E+01 0.94629592506E+01 0.11997843790E+02 0.16518575696E+02
 0.13294574119E+02 0.16569914756E+02 0.19612353139E+02 0.21441273792E+02 0.21438365123E+02
 0.19606026916E+02 0.16565203739E+02 0.13294805353E+02 0.10695771100E+02 0.91530004975E+01
 0.83218835013E+01 0.76861037962E+01 0.72583814780E+01 0.70525770374E+01 0.70531541874E+01
 0.72593984697E+01 0.76858418262E+01 0.83189150224E+01 0.91478396756E+01 0.10691352249E+02
 0.96186023777E+01 0.10763060273E+02 0.12124522717E+02 0.13242257158E+02 0.13673144029E+02
 0.13240321612E+02 0.12124509112E+02 0.10767645921E+02 0.96256217518E+01 0.88765926279E+01
 0.83003957064E+01 0.78079518249E+01 0.74573074815E+01 0.72586200834E+01 0.71958748250E+01
 0.72594122288E+01 0.74595297170E+01 0.78105916825E+01 0.83003503691E+01 0.88719191068E+01
 0.86245089334E+01 0.89468773421E+01 0.92911779008E+01 0.96580723697E+01 0.99066473447E+01
 0.99076250075E+01 0.96613156496E+01 0.92963132851E+01 0.89512543851E+01 0.86247249330E+01
 0.82956776079E+01 0.80125138457E+01 0.78076695053E+01 0.76860600820E+01 0.76324297104E+01
 0.76317495935E+01 0.76857834041E+01 0.78105761674E+01 0.80181824941E+01 0.83001343092E+01
 0.83247715299E+01 0.83748460450E+01 0.84454067878E+01 0.85232435196E+01 0.85864072480E+01
 0.86120240976E+01 0.85890921795E+01 0.85259198179E+01 0.84449160331E+01 0.83702374519E+01
 0.83182410483E+01 0.82954242041E+01 0.82998406151E+01 0.83216159801E+01 0.83445848214E+01
 0.83531654228E+01 0.83418028561E+01 0.83188896255E+01 0.83004135088E+01 0.83001496593E+01
 0.86244444733E+01 0.83748342129E+01 0.81637785755E+01 0.80189624395E+01 0.79424509622E+01
 0.79149546539E+01 0.79155921937E+01 0.79426497283E+01 0.80160380761E+01 0.81581933562E+01
 0.83705117848E+01 0.86247618355E+01 0.88763472108E+01 0.91530073092E+01 0.94661707602E+01
 0.96849840540E+01 0.96840186709E+01 0.94629576771E+01 0.91478938552E+01 0.88719412963E+01
 0.96185493869E+01 0.89468637658E+01 0.84454686415E+01 0.80189678255E+01 0.77206521969E+01
 0.75565622106E+01 0.75059808051E+01 0.75558532879E+01 0.77184851388E+01 0.80162834932E+01
 0.84454346530E+01 0.89515367047E+01 0.96256582232E+01 0.10696009705E+02 0.11997809303E+02
 0.13082201870E+02 0.13505405166E+02 0.13084186397E+02 0.11997831145E+02 0.10691345922E+02
 0.13294591514E+02 0.10763074684E+02 0.92912260023E+01 0.85232443451E+01 0.79423968174E+01
 0.75565650262E+01 0.73731045912E+01 0.73725714456E+01 0.75556246238E+01 0.79426664814E+01
 0.85261195662E+01 0.92962596295E+01 0.10767417257E+02 0.13294815294E+02 0.16513857279E+02
 0.19532461757E+02 0.21361177282E+02 0.21364086020E+02 0.19538779281E+02 0.16518549530E+02
 0.22548814762E+02 0.16569941560E+02 0.12124500587E+02 0.96580512416E+01 0.85863678829E+01
 0.79149683520E+01 0.75060230192E+01 0.73725611344E+01 0.75054621852E+01 0.79156615694E+01
 0.85890921795E+01 0.96607185372E+01 0.12123954021E+02 0.16565279927E+02 0.22542267840E+02
 0.28719690109E+02 0.33383806049E+02 0.35121003049E+02 0.33386521275E+02 0.28725070025E+02
 0.39020221370E+02 0.28733919304E+02 0.19612290718E+02 0.13242234501E+02 0.99066717393E+01
 0.86120488602E+01 0.79156196922E+01 0.75558275573E+01 0.75555960776E+01 0.79156753698E+01
 0.86130191464E+01 0.99069411942E+01 0.13239355479E+02 0.19606754443E+02 0.28729884308E+02
 0.39021175675E+02 0.48039899453E+02 0.53322154462E+02 0.53319738568E+02 0.48035565185E+02
 0.62400140649E+02 0.47994982154E+02 0.33376828299E+02 0.21441289922E+02 0.13673200368E+02
 0.99076378722E+01 0.85890675269E+01 0.79426254815E+01 0.77184711728E+01 0.79426963793E+01
 0.85891068920E+01 0.99069296643E+01 0.13670999476E+02 0.21438603729E+02 0.33376861256E+02
 0.48000396983E+02 0.62409403804E+02 0.73060925956E+02 0.76994929614E+02 0.73053604048E+02
 0.90074927073E+02 0.72983685162E+02 0.53236552609E+02 0.35099393673E+02 0.21438385470E+02
 0.13240296182E+02 0.96612704865E+01 0.85259201331E+01 0.80160633734E+01 0.80163034045E+01
 0.85261190559E+01 0.96606945022E+01 0.13239352705E+02 0.21438607946E+02 0.35101918529E+02
 0.53240878865E+02 0.72988107030E+02 0.90077942962E+02 0.10006623153E+03 0.10006520503E+03
 0.11709692284E+03 0.10000236102E+03 0.76891364360E+02 0.53238998260E+02 0.33374128655E+02
 0.19605974482E+02 0.12124500587E+02 0.92963474409E+01 0.84449500217E+01 0.81581830557E+01
 0.84454067878E+01 0.92962456838E+01 0.12123967625E+02 0.19606764431E+02 0.33376857811E+02
 0.53240885975E+02 0.76888577461E+02 0.99995023785E+02 0.11709041706E+03 0.12342582326E+03
 0.13710338200E+03 0.12339634746E+03 0.10000332308E+03 0.72990977655E+02 0.47999370195E+02
 0.28728565130E+02 0.16565238726E+02 0.10767691389E+02 0.89512518069E+01 0.83702007547E+01
 0.83704869197E+01 0.89515477028E+01 0.10767448314E+02 0.16565288109E+02 0.28729863651E+02
 0.48000408024E+02 0.72988109180E+02 0.99995002561E+02 0.12338649163E+03 0.13709893672E+03
 0.12021266164E+03 0.11405046019E+03 0.97402647213E+02 0.74873136165E+02 0.51793763810E+02
 0.32410481643E+02 0.19005524030E+02 0.11764211294E+02 0.90549166678E+01 0.82276753283E+01
 0.79462240312E+01 0.82277663757E+01 0.90549981725E+01 0.11764206184E+02 0.19005467118E+02
 0.32410463921E+02 0.51793814345E+02 0.74873196715E+02 0.97402660649E+02 0.11405044230E+03
 0.11405389203E+03 0.11405042123E+03 0.10266229148E+03 0.83180441878E+02 0.60634476035E+02
 0.39813732688E+02 0.23938954463E+02 0.14192036538E+02 0.97820610463E+01 0.84297031387E+01
 0.78949766307E+01 0.78947328043E+01 0.84294602238E+01 0.97823300482E+01 0.14192172102E+02
 0.23938117886E+02 0.39813011889E+02 0.60636714111E+02 0.83186908597E+02 0.10266997417E+03
 0.97407774386E+02 0.10266192281E+03 0.97402657340E+02 0.83180479569E+02 0.63903566842E+02
 0.44168023502E+02 0.27703328066E+02 0.16520466100E+02 0.10695163708E+02 0.86141143311E+01
 0.78770832094E+01 0.76168023707E+01 0.78765068319E+01 0.86140247947E+01 0.10695661615E+02
 0.16520070504E+02 0.27701292907E+02 0.44166432045E+02 0.63905574460E+02 0.83186157542E+02
 0.74870930644E+02 0.83177002180E+02 0.83177755953E+02 0.74873207995E+02 0.60634458223E+02
 0.44167991126E+02 0.29111240425E+02 0.17946895953E+02 0.11475840825E+02 0.88046492178E+01
 0.78820353128E+01 0.74193927449E+01 0.74191527898E+01 0.78817712562E+01 0.88050140301E+01
 0.11476522276E+02 0.17946634800E+02 0.29109129275E+02 0.44164497331E+02 0.60630998309E+02
 0.51786630946E+02 0.60642649623E+02 0.63915782413E+02 0.60648328595E+02 0.51793765753E+02
 0.39813669479E+02 0.27703354971E+02 0.17946922646E+02 0.11783575116E+02 0.89398547002E+01
 0.78944373719E+01 0.73026315292E+01 0.71010200592E+01 0.73026932090E+01 0.78944833978E+01
 0.89403229392E+01 0.11785107896E+02 0.17948900872E+02 0.27703362568E+02 0.39809562159E+02
 0.32409762901E+02 0.39863654069E+02 0.44236433183E+02 0.44238357250E+02 0.39867083040E+02
 0.32410451098E+02 0.23938965789E+02 0.16520521056E+02 0.11475808829E+02 0.89398338447E+01
 0.79004532871E+01 0.72512065413E+01 0.69228036103E+01 0.69230539435E+01 0.72512966367E+01
 0.78997677395E+01 0.89396219190E+01 0.11478087327E+02 0.16524972309E+02 0.23942268636E+02
 0.19010580855E+02 0.24043444954E+02 0.27861054447E+02 0.29283919670E+02 0.27859019262E+02
 0.24039339174E+02 0.19005496980E+02 0.14192069981E+02 0.10695143538E+02 0.88046034868E+01
 0.78944714022E+01 0.72512216644E+01 0.68665985545E+01 0.67425273616E+01 0.68670715193E+01
 0.72507363822E+01 0.78924137362E+01 0.88026071930E+01 0.10695661615E+02 0.14195762598E+02
 0.11763943209E+02 0.14328765147E+02 0.16755622771E+02 0.18229370412E+02 0.18227124048E+02
 0.16750753848E+02 0.14325181855E+02 0.11764197510E+02 0.97820804304E+01 0.86140797330E+01
 0.78820595339E+01 0.73026658812E+01 0.69227652056E+01 0.67425153521E+01 0.67429311021E+01
 0.69234919886E+01 0.73024302341E+01 0.78797681598E+01 0.86100869846E+01 0.97786173430E+01
 0.90493653899E+01 0.99213314602E+01 0.10961745676E+02 0.11826643779E+02 0.12162442840E+02
 0.11825090449E+02 0.10961732631E+02 0.99249929038E+01 0.90549494155E+01 0.84297045804E+01
 0.78770670210E+01 0.74194216749E+01 0.71009902142E+01 0.69230281806E+01 0.68671175999E+01
 0.69235046304E+01 0.71025706754E+01 0.74214188612E+01 0.78770258773E+01 0.84260104935E+01
 0.82275119735E+01 0.85658392304E+01 0.88795977275E+01 0.91734523856E+01 0.93661634831E+01
 0.93668610661E+01 0.91758541023E+01 0.88835306246E+01 0.85692668624E+01 0.82277074936E+01
 0.78949414048E+01 0.76168062837E+01 0.74191672727E+01 0.73026744540E+01 0.72513353009E+01
 0.72507599233E+01 0.73023771270E+01 0.74214044141E+01 0.76212575580E+01 0.78984369367E+01
 0.79513377684E+01 0.80355146579E+01 0.81421208481E+01 0.82517571897E+01 0.83364070921E+01
 0.83692889627E+01 0.83384323524E+01 0.82537478608E+01 0.81416605330E+01 0.80318773845E+01
 0.79462133669E+01 0.78947117746E+01 0.78765479756E+01 0.78817717870E+01 0.78944714022E+01
 0.78997770390E+01 0.78923677103E+01 0.78797444694E+01 0.78770832094E+01 0.78984511329E+01
 0.82274528712E+01 0.80355036306E+01 0.78847430601E+01 0.77932737445E+01 0.77553325215E+01
 0.77475477150E+01 0.77480842915E+01 0.77555566823E+01 0.77910135266E+01 0.78803585749E+01
 0.80321246136E+01 0.82277394387E+01 0.84294821233E+01 0.86140392152E+01 0.88049667096E+01
 0.89403124077E+01 0.89396322431E+01 0.88026056034E+01 0.86101360032E+01 0.84260309513E+01
 0.90493168886E+01 0.85658265725E+01 0.81421780500E+01 0.77932790292E+01 0.75585699666E+01
 0.74346683924E+01 0.73976891891E+01 0.74342598430E+01 0.75570301116E+01 0.77912359837E+01
 0.81421465751E+01 0.85695212645E+01 0.90549824189E+01 0.97823434054E+01 0.10695629580E+02
 0.11476509850E+02 0.11785158736E+02 0.11478106896E+02 0.10695649750E+02 0.97786113161E+01
 0.11763959350E+02 0.99213448940E+01 0.88796422629E+01 0.82517585527E+01 0.77552826118E+01
 0.74346708203E+01 0.72854011087E+01 0.72850214746E+01 0.74340078994E+01 0.77555271958E+01
 0.82539750325E+01 0.88835281660E+01 0.99247409601E+01 0.11764208541E+02 0.14192181159E+02
 0.16520071979E+02 0.17946670702E+02 0.17948910081E+02 0.16524918829E+02 0.14195738212E+02
 0.19010637767E+02 0.14328790221E+02 0.10961725299E+02 0.91734331528E+01 0.83363707919E+01
 0.77475599735E+01 0.73977279192E+01 0.72850117611E+01 0.73972031470E+01 0.77479992384E+01
 0.83384323524E+01 0.91754622962E+01 0.10961213585E+02 0.14325056284E+02 0.19005496980E+02
 0.23938127365E+02 0.27701285309E+02 0.29109111758E+02 0.27703328066E+02 0.23942266789E+02
 0.32409794708E+02 0.24043438381E+02 0.16755565110E+02 0.11826622535E+02 0.93661858967E+01
 0.83693114564E+01 0.77481095045E+01 0.74342358290E+01 0.74339814573E+01 0.77480121930E+01
 0.83700006697E+01 0.93664285333E+01 0.11824403514E+02 0.16751177808E+02 0.24040166875E+02
 0.32410465183E+02 0.39812982544E+02 0.44166411990E+02 0.44164509652E+02 0.39809596023E+02
 0.51786611085E+02 0.39863608364E+02 0.27861027225E+02 0.18229384699E+02 0.12162494534E+02
 0.93668728318E+01 0.83384097798E+01 0.77555345555E+01 0.75570170207E+01 0.77555549786E+01
 0.83384460801E+01 0.93664178852E+01 0.12160922897E+02 0.18227387023E+02 0.27861058250E+02
 0.39867784061E+02 0.51793796427E+02 0.60636724294E+02 0.63905605830E+02 0.60631026305E+02
 0.74870893801E+02 0.60642616776E+02 0.44236459841E+02 0.29283969645E+02 0.18227142335E+02
 0.11825067106E+02 0.91758129211E+01 0.82537489734E+01 0.77910366649E+01 0.77912538373E+01
 0.82539747821E+01 0.91754403477E+01 0.11824401414E+02 0.18227391023E+02 0.29286021269E+02
 0.44239898594E+02 0.60646086231E+02 0.74873231702E+02 0.83186922718E+02 0.83186133973E+02
 0.97407760950E+02 0.83177033159E+02 0.63915822657E+02 0.44238390128E+02 0.27858988237E+02
 0.16750705523E+02 0.10961725299E+02 0.88835629707E+01 0.81416920080E+01 0.78803479515E+01
 0.81421208481E+01 0.88835159768E+01 0.10961226631E+02 0.16751187145E+02 0.27861054447E+02
 0.44239904814E+02 0.63913712751E+02 0.83171317230E+02 0.97402657340E+02 0.10266991386E+03
 0.11405389862E+03 0.10266199647E+03 0.83177767372E+02 0.60648297579E+02 0.39867046802E+02
 0.24039313007E+02 0.14325214378E+02 0.99250352762E+01 0.85692650110E+01 0.80318427349E+01
 0.80321009913E+01 0.85695320711E+01 0.99247698987E+01 0.14325063734E+02 0.24040147281E+02
 0.39867793527E+02 0.60646088061E+02 0.83171297670E+02 0.10265428358E+03 0.11405040994E+03
 0.88467847891E+02 0.83920955441E+02 0.71619622521E+02 0.54963497086E+02 0.37987298414E+02
 0.23979992674E+02 0.14670492975E+02 0.99979058260E+01 0.83704126500E+01 0.76881082141E+01
 0.74477208254E+01 0.76881846976E+01 0.83704821881E+01 0.99979028919E+01 0.14670443470E+02
 0.23979970971E+02 0.37987331834E+02 0.54963542453E+02 0.71619634207E+02 0.83920943095E+02
 0.83923176295E+02 0.83920920736E+02 0.75495302871E+02 0.61068838897E+02 0.44414874257E+02
 0.29214723304E+02 0.17958687414E+02 0.11434959352E+02 0.87401402115E+01 0.78190901229E+01
 0.73597128089E+01 0.73595098010E+01 0.78188876102E+01 0.87404185442E+01 0.11435304829E+02
 0.17958392741E+02 0.29214343912E+02 0.44416269565E+02 0.61072958163E+02 0.75500265310E+02
 0.71622955072E+02 0.75520654524E+02 0.71619630781E+02 0.61068871846E+02 0.46799024209E+02
 0.32322566389E+02 0.20521687244E+02 0.12873714656E+02 0.92013073734E+01 0.79324846352E+01
 0.73066826980E+01 0.70894690109E+01 0.73061839178E+01 0.79323546741E+01 0.92017401198E+01
 0.12873666748E+02 0.20520484438E+02 0.32321486028E+02 0.46800214195E+02 0.61072499999E+02
 0.54962122864E+02 0.61133633092E+02 0.61134098744E+02 0.54963559794E+02 0.44414858900E+02
 0.32322538458E+02 0.21489338863E+02 0.13776082095E+02 0.96134471160E+01 0.80140356360E+01
 0.72817613550E+01 0.68975764821E+01 0.68973793401E+01 0.72814899749E+01 0.80141593956E+01
 0.96137854446E+01 0.13775812382E+02 0.21487875462E+02 0.32320214253E+02 0.44412616776E+02
 0.37982778543E+02 0.44529564888E+02 0.46957709855E+02 0.44533196141E+02 0.37987300600E+02
 0.29214668876E+02 0.20521710923E+02 0.13776105082E+02 0.97800460303E+01 0.80646564113E+01
 0.72737129395E+01 0.67821553011E+01 0.66192535155E+01 0.67822634190E+01 0.72737519431E+01
 0.80648183184E+01 0.97808125542E+01 0.13777231971E+02 0.20521716864E+02 0.29212110712E+02
 0.23979615491E+02 0.29386479960E+02 0.32590158512E+02 0.32591422236E+02 0.29388698968E+02
 0.23979966638E+02 0.17958697477E+02 0.12873762080E+02 0.96134195462E+01 0.80646386776E+01
 0.72724013247E+01 0.67300503759E+01 0.64650432225E+01 0.64653052120E+01 0.67303021238E+01
 0.72720569400E+01 0.80644628384E+01 0.96148495536E+01 0.12876713591E+02 0.17960981421E+02
 0.14673764335E+02 0.18177343046E+02 0.20889289120E+02 0.21909411927E+02 0.20888076948E+02
 0.18174784603E+02 0.14670469338E+02 0.11434988383E+02 0.92012899991E+01 0.80139964057E+01
 0.72737415161E+01 0.67300628344E+01 0.64165447835E+01 0.63170929820E+01 0.64169555304E+01
 0.67298843862E+01 0.72725195175E+01 0.80128020641E+01 0.92017401198E+01 0.11437475772E+02
 0.99976299915E+01 0.11670265250E+02 0.13300289839E+02 0.14307852400E+02 0.14306442458E+02
 0.13297256814E+02 0.11668091537E+02 0.99978939006E+01 0.87401568201E+01 0.79324542366E+01
 0.72817814827E+01 0.67821840855E+01 0.64650108513E+01 0.63170831253E+01 0.63173036248E+01
 0.64653877916E+01 0.67819905186E+01 0.72803432862E+01 0.79299362108E+01 0.87379124438E+01
 0.83667113765E+01 0.89656499004E+01 0.96351203591E+01 0.10192175660E+02 0.10409888521E+02
 0.10191120200E+02 0.96351084024E+01 0.89681126411E+01 0.83704405146E+01 0.78190904020E+01
 0.73066688115E+01 0.68976017652E+01 0.66192284927E+01 0.64652837517E+01 0.64169947302E+01
 0.64653987026E+01 0.66200359943E+01 0.68987989291E+01 0.73066338645E+01 0.78166544101E+01
 0.76879748047E+01 0.80327350828E+01 0.83475409755E+01 0.85891195354E+01 0.87288245415E+01
 0.87291835327E+01 0.85904856665E+01 0.83499641912E+01 0.80349511341E+01 0.76881358508E+01
 0.73596834173E+01 0.70894739257E+01 0.68973918723E+01 0.67822470930E+01 0.67303349849E+01
 0.67299047887E+01 0.67819454082E+01 0.68987861783E+01 0.70923702675E+01 0.73619528939E+01
 0.74510416903E+01 0.75709211191E+01 0.77090280662E+01 0.78423082717E+01 0.79408183582E+01
 0.79778266770E+01 0.79420225040E+01 0.78434528581E+01 0.77086282388E+01 0.75685313101E+01
 0.74477129258E+01 0.73594929384E+01 0.73062188648E+01 0.72814891682E+01 0.72737415161E+01
 0.72720652588E+01 0.72724805139E+01 0.72803223519E+01 0.73066826980E+01 0.73619654230E+01
 0.76879237073E+01 0.75709112236E+01 0.74891219885E+01 0.74513246025E+01 0.74474834166E+01
 0.74552596109E+01 0.74556567153E+01 0.74477204795E+01 0.74499034847E+01 0.74862731591E+01
 0.75687352309E+01 0.76881612370E+01 0.78189058953E+01 0.79323658430E+01 0.80141186549E+01
 0.80648096509E+01 0.80644719045E+01 0.80128005537E+01 0.79299777783E+01 0.78166724161E+01
 0.83666695654E+01 0.80327236326E+01 0.77090780830E+01 0.74513296261E+01 0.72839218955E+01
 0.71987629352E+01 0.71741391778E+01 0.71986982963E+01 0.72831396655E+01 0.74500879915E+01
 0.77090504585E+01 0.80351610270E+01 0.83704682416E+01 0.87404297205E+01 0.92017122188E+01
 0.96137750262E+01 0.97808562362E+01 0.96148667051E+01 0.92017295931E+01 0.87379070114E+01
 0.99976442331E+01 0.89656616983E+01 0.83475798999E+01 0.78423102189E+01 0.74474398545E+01
 0.71987649168E+01 0.70848618663E+01 0.70846682210E+01 0.71984367034E+01 0.74476433934E+01
 0.78436950369E+01 0.83500158912E+01 0.89678510482E+01 0.99979052081E+01 0.11435312234E+02
 0.12873668193E+02 0.13775843489E+02 0.13777240091E+02 0.12876667612E+02 0.11437454145E+02
 0.14673813840E+02 0.11670287661E+02 0.96351024901E+01 0.85891030203E+01 0.79407867153E+01
 0.74552699829E+01 0.71741729338E+01 0.70846594355E+01 0.71737169581E+01 0.74554130465E+01
 0.79420225040E+01 0.85903349356E+01 0.96346584557E+01 0.11667759474E+02 0.14670469338E+02
 0.17958401159E+02 0.20520478497E+02 0.21487860112E+02 0.20521687244E+02 0.17960979777E+02
 0.23979643108E+02 0.18177337675E+02 0.13300239354E+02 0.10192156621E+02 0.87288441187E+01
 0.79778459915E+01 0.74556787115E+01 0.71986769432E+01 0.71984133686E+01 0.74554246707E+01
 0.79781956577E+01 0.87290438590E+01 0.10190770633E+02 0.13297333480E+02 0.18175071912E+02
 0.23979972551E+02 0.29214319309E+02 0.32321468435E+02 0.32320224592E+02 0.29212140537E+02
 0.37982761277E+02 0.29386440039E+02 0.20889265380E+02 0.14307864120E+02 0.10409933466E+02
 0.87291936852E+01 0.79420029883E+01 0.74477014474E+01 0.72831278421E+01 0.74476679234E+01
 0.79420346312E+01 0.87290344344E+01 0.10409122194E+02 0.14306715358E+02 0.20889293221E+02
 0.29389054448E+02 0.37987316752E+02 0.44416278489E+02 0.46800240482E+02 0.44412641057E+02
 0.54962090852E+02 0.44529536407E+02 0.32590182177E+02 0.21909455177E+02 0.14306457885E+02
 0.10191099954E+02 0.85904500925E+01 0.78434548602E+01 0.74499233919E+01 0.74501028750E+01
 0.78436950918E+01 0.85903158767E+01 0.10190769426E+02 0.14306719066E+02 0.21910880419E+02
 0.32592472990E+02 0.44531789907E+02 0.54963573149E+02 0.61072969444E+02 0.61072478331E+02
 0.71622943386E+02 0.61133661122E+02 0.46957745770E+02 0.32591450988E+02 0.20888049107E+02
 0.13297214743E+02 0.96351024901E+01 0.83499933521E+01 0.77086558633E+01 0.74862624366E+01
 0.77090280662E+01 0.83500061277E+01 0.96346704124E+01 0.13297341894E+02 0.20889289120E+02
 0.32592478077E+02 0.46956477429E+02 0.61130004110E+02 0.71619630781E+02 0.75500211116E+02
 0.83923182004E+02 0.75520720247E+02 0.61134109604E+02 0.44533169204E+02 0.29388666602E+02
 0.18174761546E+02 0.11668120261E+02 0.89681498540E+01 0.80349501953E+01 0.75685001540E+01
 0.75687139704E+01 0.80351715385E+01 0.89678764632E+01 0.11667765787E+02 0.18175054226E+02
 0.29389062003E+02 0.44531791450E+02 0.61129986940E+02 0.75515736598E+02 0.83920914099E+02
 0.57539446786E+02 0.54562709287E+02 0.46523215287E+02 0.35710082050E+02 0.24886537618E+02
 0.16299707679E+02 0.10999311253E+02 0.86206218647E+01 0.76910175631E+01 0.71352842718E+01
 0.69473486317E+01 0.71353413104E+01 0.76910683085E+01 0.86206167735E+01 0.10999270543E+02
 0.16299688618E+02 0.24886561611E+02 0.35710116432E+02 0.46523224897E+02 0.54562700599E+02
 0.54563816876E+02 0.54562680038E+02 0.49037130619E+02 0.39617629730E+02 0.28881350366E+02
 0.19363990685E+02 0.12709129179E+02 0.92156058955E+01 0.78757271548E+01 0.71808905801E+01