   2   2   0   0
  0.9164906E+01  0.2306700E-09  0.2306700E-09  0.3977820E-09  0.5000000E-15
  1.000000000000000E-004
  CAR 
 unknown system                          
     76.79588066     -5.07314431  301      8.14407176      1.00000000
     -5.073  0.0000E+00  0.0000E+00
     -4.800  0.0000E+00  0.0000E+00
     -4.527  0.0000E+00  0.0000E+00
     -4.254  0.0000E+00  0.0000E+00
     -3.982  0.0000E+00  0.0000E+00
     -3.709  0.0000E+00  0.0000E+00
     -3.436  0.0000E+00  0.0000E+00
     -3.163 -0.3446E-37 -0.9405E-38
     -2.890 -0.2458E-27 -0.6709E-28
     -2.617 -0.4111E-19 -0.1122E-19
     -2.344 -0.1536E-12 -0.4190E-13
     -2.071 -0.1332E-07 -0.3636E-08
     -1.798 -0.2477E-04 -0.6764E-05
     -1.525 -0.4138E-03 -0.1197E-03
     -1.253  0.8425E-02  0.2179E-02
     -0.980  0.4753E-01  0.1515E-01
     -0.707  0.9238E-01  0.4036E-01
     -0.434  0.5694E-01  0.5590E-01
     -0.161  0.1351E+00  0.9276E-01
      0.112  0.1679E+00  0.1386E+00
      0.385  0.1735E+00  0.1859E+00
      0.658  0.9033E-01  0.2106E+00
      0.931  0.1977E+00  0.2645E+00
      1.203  0.3176E+00  0.3512E+00
      1.476  0.2543E+00  0.4206E+00
      1.749  0.3164E+00  0.5070E+00
      2.022  0.2041E+00  0.5627E+00
      2.295  0.4623E+00  0.6888E+00
      2.568  0.1097E+01  0.9882E+00
      2.841  0.1635E+01  0.1434E+01
      3.114  0.1683E+01  0.1894E+01
      3.387  0.2831E+01  0.2666E+01
      3.660  0.2121E+01  0.3245E+01
      3.932  0.2721E+01  0.3988E+01
      4.205  0.1871E+01  0.4499E+01
      4.478  0.2836E+01  0.5273E+01
      4.751  0.2714E+01  0.6013E+01
      5.024  0.2829E+01  0.6785E+01
      5.297  0.2296E+01  0.7412E+01
      5.570  0.1841E+01  0.7914E+01
      5.843  0.2886E+01  0.8702E+01
      6.116  0.3571E+01  0.9677E+01
      6.389  0.3373E+01  0.1060E+02
      6.661  0.3575E+01  0.1157E+02
      6.934  0.3603E+01  0.1256E+02
      7.207  0.3423E+01  0.1349E+02
      7.480  0.2601E+01  0.1420E+02
      7.753  0.2560E+01  0.1490E+02
      8.026  0.2946E+01  0.1570E+02
      8.299  0.2241E+01  0.1631E+02
      8.572  0.2293E+01  0.1694E+02
      8.845  0.3979E+01  0.1803E+02
      9.117  0.4564E+01  0.1927E+02
      9.390  0.4313E+01  0.2045E+02
      9.663  0.2669E+01  0.2118E+02
      9.936  0.2663E+00  0.2125E+02
     10.209  0.1400E+00  0.2129E+02
     10.482  0.8286E+00  0.2151E+02
     10.755  0.7692E+00  0.2172E+02
     11.028  0.5443E+00  0.2187E+02
     11.301  0.4319E+00  0.2199E+02
     11.574  0.6191E+00  0.2216E+02
     11.846  0.3149E+00  0.2224E+02
     12.119  0.2232E+00  0.2231E+02
     12.392  0.4678E+00  0.2243E+02
     12.665  0.7549E+00  0.2264E+02
     12.938  0.4945E+00  0.2277E+02
     13.211  0.2882E+00  0.2285E+02
     13.484  0.2911E+00  0.2293E+02
     13.757  0.4639E+00  0.2306E+02
     14.030  0.4425E+00  0.2318E+02
     14.303  0.3127E+00  0.2326E+02
     14.575  0.2570E+00  0.2333E+02
     14.848  0.3082E+00  0.2342E+02
     15.121  0.3450E+00  0.2351E+02
     15.394  0.3323E+00  0.2360E+02
     15.667  0.3774E+00  0.2371E+02
     15.940  0.5137E+00  0.2385E+02
     16.213  0.1455E+00  0.2389E+02
     16.486  0.5724E-01  0.2390E+02
     16.759  0.1608E+00  0.2395E+02
     17.031  0.1917E+00  0.2400E+02
     17.304  0.1860E+00  0.2405E+02
     17.577  0.2202E+00  0.2411E+02
     17.850  0.2224E+00  0.2417E+02
     18.123  0.2677E+00  0.2424E+02
     18.396  0.3848E+00  0.2435E+02
     18.669  0.5037E+00  0.2449E+02
     18.942  0.7295E+00  0.2468E+02
     19.215  0.8420E+00  0.2491E+02
     19.488  0.7784E+00  0.2513E+02
     19.760  0.5167E+00  0.2527E+02
     20.033  0.4098E+00  0.2538E+02
     20.306  0.8173E+00  0.2560E+02
     20.579  0.5143E+00  0.2574E+02
     20.852  0.8831E+00  0.2598E+02
     21.125  0.6787E+00  0.2617E+02
     21.398  0.4933E+00  0.2630E+02
     21.671  0.7517E+00  0.2651E+02
     21.944  0.7651E+00  0.2672E+02
     22.217  0.6797E+00  0.2690E+02
     22.489  0.6003E+00  0.2707E+02
     22.762  0.5913E+00  0.2723E+02
     23.035  0.7265E+00  0.2743E+02
     23.308  0.5686E+00  0.2758E+02
     23.581  0.3905E+00  0.2769E+02
     23.854  0.6316E+00  0.2786E+02
     24.127  0.4963E+00  0.2800E+02
     24.400  0.6139E+00  0.2816E+02
     24.673  0.6581E+00  0.2834E+02
     24.945  0.6162E+00  0.2851E+02
     25.218  0.6598E+00  0.2869E+02
     25.491  0.5498E+00  0.2884E+02
     25.764  0.1043E+01  0.2913E+02
     26.037  0.8193E+00  0.2935E+02
     26.310  0.6527E+00  0.2953E+02
     26.583  0.1201E+01  0.2986E+02
     26.856  0.7169E+00  0.3005E+02
     27.129  0.5613E+00  0.3020E+02
     27.402  0.9120E+00  0.3045E+02
     27.674  0.8181E+00  0.3068E+02
     27.947  0.6092E+00  0.3084E+02
     28.220  0.1243E+01  0.3118E+02
     28.493  0.1272E+01  0.3153E+02
     28.766  0.6894E+00  0.3172E+02
     29.039  0.6471E+00  0.3189E+02
     29.312  0.9787E+00  0.3216E+02
     29.585  0.5940E+00  0.3232E+02
     29.858  0.1010E+01  0.3260E+02
     30.131  0.1201E+01  0.3293E+02
     30.403  0.5018E+00  0.3306E+02
     30.676  0.7791E+00  0.3328E+02
     30.949  0.9741E+00  0.3354E+02
     31.222  0.9823E+00  0.3381E+02
     31.495  0.1056E+01  0.3410E+02
     31.768  0.5789E+00  0.3426E+02
     32.041  0.2607E+00  0.3433E+02
     32.314  0.6156E+00  0.3450E+02
     32.587  0.1038E+01  0.3478E+02
     32.860  0.8178E+00  0.3500E+02
     33.132  0.5809E+00  0.3516E+02
     33.405  0.6936E+00  0.3535E+02
     33.678  0.6976E+00  0.3554E+02
     33.951  0.7979E+00  0.3576E+02
     34.224  0.6567E+00  0.3594E+02
     34.497  0.4731E+00  0.3607E+02
     34.770  0.4401E+00  0.3619E+02
     35.043  0.7294E+00  0.3638E+02
     35.316  0.8109E+00  0.3661E+02
     35.588  0.6421E+00  0.3678E+02
     35.861  0.1078E+01  0.3708E+02
     36.134  0.6763E+00  0.3726E+02
     36.407  0.8123E+00  0.3748E+02
     36.680  0.8796E+00  0.3772E+02
     36.953  0.5937E+00  0.3788E+02
     37.226  0.9432E+00  0.3814E+02
     37.499  0.9399E+00  0.3840E+02
     37.772  0.8270E+00  0.3862E+02
     38.045  0.1100E+01  0.3892E+02
     38.317  0.6436E+00  0.3910E+02
     38.590  0.9060E+00  0.3935E+02
     38.863  0.8389E+00  0.3958E+02
     39.136  0.1005E+01  0.3985E+02
     39.409  0.9350E+00  0.4010E+02
     39.682  0.8909E+00  0.4035E+02
     39.955  0.7228E+00  0.4055E+02
     40.228  0.9387E+00  0.4080E+02
     40.501  0.5950E+00  0.4096E+02
     40.774  0.7274E+00  0.4116E+02
     41.046  0.6514E+00  0.4134E+02
     41.319  0.8958E+00  0.4158E+02
     41.592  0.7590E+00  0.4179E+02
     41.865  0.9514E+00  0.4205E+02
     42.138  0.6969E+00  0.4224E+02
     42.411  0.8158E+00  0.4246E+02
     42.684  0.7557E+00  0.4267E+02
     42.957  0.1010E+01  0.4295E+02
     43.230  0.9277E+00  0.4320E+02
     43.502  0.1098E+01  0.4350E+02
     43.775  0.6851E+00  0.4369E+02
     44.048  0.4855E+00  0.4382E+02
     44.321  0.6607E+00  0.4400E+02
     44.594  0.5946E+00  0.4416E+02
     44.867  0.7567E+00  0.4437E+02
     45.140  0.1114E+01  0.4467E+02
     45.413  0.1088E+01  0.4497E+02
     45.686  0.1184E+01  0.4529E+02
     45.959  0.1169E+01  0.4561E+02
     46.231  0.8748E+00  0.4585E+02
     46.504  0.8693E+00  0.4609E+02
     46.777  0.8012E+00  0.4631E+02
     47.050  0.8958E+00  0.4655E+02
     47.323  0.1359E+01  0.4692E+02
     47.596  0.1306E+01  0.4728E+02
     47.869  0.7584E+00  0.4748E+02
     48.142  0.1074E+01  0.4778E+02
     48.415  0.1233E+01  0.4811E+02
     48.688  0.1158E+01  0.4843E+02
     48.960  0.7671E+00  0.4864E+02
     49.233  0.8833E+00  0.4888E+02
     49.506  0.5461E+00  0.4903E+02
     49.779  0.7227E+00  0.4923E+02
     50.052  0.8891E+00  0.4947E+02
     50.325  0.7280E+00  0.4967E+02
     50.598  0.3768E+00  0.4977E+02
     50.871  0.8310E+00  0.5000E+02
     51.144  0.1095E+01  0.5030E+02
     51.416  0.1217E+01  0.5063E+02
     51.689  0.1131E+01  0.5094E+02
     51.962  0.6922E+00  0.5113E+02
     52.235  0.9733E+00  0.5139E+02
     52.508  0.1425E+01  0.5178E+02
     52.781  0.1304E+01  0.5214E+02
     53.054  0.8158E+00  0.5236E+02
     53.327  0.9347E+00  0.5261E+02
     53.600  0.4766E+00  0.5274E+02
     53.873  0.8098E+00  0.5296E+02
     54.145  0.1059E+01  0.5325E+02
     54.418  0.1622E+01  0.5370E+02
     54.691  0.1174E+01  0.5402E+02
     54.964  0.1046E+01  0.5430E+02
     55.237  0.1253E+01  0.5464E+02
     55.510  0.1106E+01  0.5495E+02
     55.783  0.7870E+00  0.5516E+02
     56.056  0.1272E+01  0.5551E+02
     56.329  0.1371E+01  0.5588E+02
     56.602  0.1034E+01  0.5616E+02
     56.874  0.7280E+00  0.5636E+02
     57.147  0.1404E+01  0.5675E+02
     57.420  0.1382E+01  0.5712E+02
     57.693  0.1122E+01  0.5743E+02
     57.966  0.1102E+01  0.5773E+02
     58.239  0.1092E+01  0.5803E+02
     58.512  0.1140E+01  0.5834E+02
     58.785  0.1720E+01  0.5881E+02
     59.058  0.1130E+01  0.5912E+02
     59.330  0.1224E+01  0.5945E+02
     59.603  0.1550E+01  0.5987E+02
     59.876  0.1561E+01  0.6030E+02
     60.149  0.1554E+01  0.6072E+02
     60.422  0.1552E+01  0.6115E+02
     60.695  0.2039E+01  0.6170E+02
     60.968  0.2125E+01  0.6228E+02
     61.241  0.1306E+01  0.6264E+02
     61.514  0.1532E+01  0.6306E+02
     61.787  0.1743E+01  0.6353E+02
     62.059  0.2595E+01  0.6424E+02
     62.332  0.3046E+01  0.6507E+02
     62.605  0.2288E+01  0.6570E+02
     62.878  0.2563E+01  0.6640E+02
     63.151  0.1584E+01  0.6683E+02
     63.424  0.1902E+01  0.6735E+02
     63.697  0.1095E+01  0.6765E+02
     63.970  0.1040E+01  0.6793E+02
     64.243  0.1536E+01  0.6835E+02
     64.516  0.2106E+01  0.6893E+02
     64.788  0.1724E+01  0.6940E+02
     65.061  0.1534E+01  0.6981E+02
     65.334  0.1417E+01  0.7020E+02
     65.607  0.1308E+01  0.7056E+02
     65.880  0.1410E+01  0.7094E+02
     66.153  0.1676E+01  0.7140E+02
     66.426  0.1610E+01  0.7184E+02
     66.699  0.8775E+00  0.7208E+02
     66.972  0.1090E+01  0.7238E+02
     67.244  0.1439E+01  0.7277E+02
     67.517  0.2123E+01  0.7335E+02
     67.790  0.1622E+01  0.7379E+02
     68.063  0.1428E+01  0.7418E+02
     68.336  0.1706E+01  0.7465E+02
     68.609  0.1414E+01  0.7503E+02
     68.882  0.1424E+01  0.7542E+02
     69.155  0.1405E+01  0.7580E+02
     69.428  0.1348E+01  0.7617E+02
     69.701  0.1487E+01  0.7658E+02
     69.973  0.1994E+01  0.7712E+02
     70.246  0.1353E+01  0.7749E+02
     70.519  0.7140E+00  0.7769E+02
     70.792  0.1510E+01  0.7810E+02
     71.065  0.1622E+01  0.7854E+02
     71.338  0.1194E+01  0.7887E+02
     71.611  0.7813E+00  0.7908E+02
     71.884  0.1120E+01  0.7939E+02
     72.157  0.1105E+01  0.7969E+02
     72.430  0.8126E+00  0.7991E+02
     72.702  0.2314E+00  0.7997E+02
     72.975  0.4890E-01  0.7999E+02
     73.248  0.5456E-01  0.8000E+02
     73.521 -0.1816E-03  0.8000E+02
     73.794 -0.2319E-03  0.8000E+02
     74.067 -0.1489E-06  0.8000E+02
     74.340 -0.1805E-11  0.8000E+02
     74.613  0.0000E+00  0.8000E+02
     74.886  0.0000E+00  0.8000E+02
     75.159  0.0000E+00  0.8000E+02
     75.431  0.0000E+00  0.8000E+02
     75.704  0.0000E+00  0.8000E+02
     75.977  0.0000E+00  0.8000E+02
     76.250  0.0000E+00  0.8000E+02
     76.523  0.0000E+00  0.8000E+02
     76.796  0.0000E+00  0.8000E+02
