    2    2    1    1
  0.9164906E+01  0.2306700E-09  0.2306700E-09  0.3977820E-09  0.5000000E-15
  1.000000000000000E-004
  CAR 
 unknown system                          
     16     96     40
 
  0.0000000E+00  0.0000000E+00  0.0000000E+00  0.7513148E-03
    1       -1.351825   1.000000
    2        2.561890   1.000000
    3        5.757458   1.000000
    4        6.312403   1.000000
    5        6.312468   1.000000
    6        6.708742   1.000000
    7        6.708820   1.000000
    8        7.629130   1.000824
    9        7.675624   1.002276
   10        7.675643   1.002277
   11        9.019706  -0.000000
   12        9.019726  -0.000000
   13       16.810060   0.000000
   14       32.193638   0.000000
   15       33.423139   0.000000
   16       35.600653   0.000000
   17       38.432308   0.000000
   18       38.432379   0.000000
   19       39.161457   0.000000
   20       39.161638   0.000000
   21       41.192221   0.000000
   22       41.876181   0.000000
   23       41.876199   0.000000
   24       42.996191   0.000000
   25       46.144233   0.000000
   26       46.144242   0.000000
   27       47.641871   0.000000
   28       50.411169   0.000000
   29       50.411588   0.000000
   30       52.361490   0.000000
   31       52.361667   0.000000
   32       55.530482   0.000000
   33       63.494538   0.000000
   34       64.017094   0.000000
   35       64.339870   0.000000
   36       64.340806   0.000000
   37       65.707631   0.000000
   38       67.593169   0.000000
   39       67.594315   0.000000
   40       70.256884   0.000000
 
  0.9090909E-01  0.1944724E-17  0.0000000E+00  0.4507889E-02
    1       -0.997374   1.000000
    2        2.823436   1.000000
    3        5.704644   1.000000
    4        6.302995   1.000000
    5        6.531289   1.000000
    6        6.567620   1.000000
    7        6.586841   1.000000
    8        6.910615   1.000000
    9        7.532546   1.000067
   10        7.542785   1.000090
   11        9.065159  -0.000000
   12       10.345370  -0.000000
   13       16.828685   0.000000
   14       31.144909   0.000000
   15       33.734057   0.000000
   16       34.035994   0.000000
   17       35.500866   0.000000
   18       37.711482   0.000000
   19       37.741816   0.000000
   20       41.027096   0.000000
   21       41.403037   0.000000
   22       42.254522   0.000000
   23       42.977794   0.000000
   24       43.038889   0.000000
   25       47.256206   0.000000
   26       47.508593   0.000000
   27       47.846278   0.000000
   28       48.143286   0.000000
   29       51.627557   0.000000
   30       53.960234   0.000000
   31       54.823252   0.000000
   32       57.190857   0.000000
   33       62.096550   0.000000
   34       63.519246   0.000000
   35       63.714976   0.000000
   36       64.351360   0.000000
   37       64.567262   0.000000
   38       68.174446   0.000000
   39       69.812686   0.000000
   40       70.242770   0.000000
 
  0.1818182E+00 -0.9381881E-17  0.0000000E+00  0.4507889E-02
    1       -0.001765   1.000000
    2        3.428682   1.000000
    3        5.298065   1.000000
    4        5.399212   1.000000
    5        6.132606   1.000000
    6        6.796127   1.000000
    7        7.139514   1.000000
    8        7.163055   1.000000
    9        7.230381   1.000000
   10        7.466069   1.000009
   11        9.145370  -0.000000
   12       12.384094  -0.000000
   13       16.902551   0.000000
   14       27.554240   0.000000
   15       32.492709   0.000000
   16       32.783548   0.000000
   17       33.280012   0.000000
   18       34.534970   0.000000
   19       38.643450   0.000000
   20       40.213907   0.000000
   21       40.662772   0.000000
   22       40.794870   0.000000
   23       43.604061   0.000000
   24       45.076828   0.000000
   25       47.440610   0.000000
   26       48.287634   0.000000
   27       49.892413   0.000000
   28       52.293364   0.000000
   29       54.914234   0.000000
   30       56.872577   0.000000
   31       57.533873   0.000000
   32       60.026617   0.000000
   33       60.540116   0.000000
   34       61.878296   0.000000
   35       61.935945   0.000000
   36       63.090762   0.000000
   37       65.573072   0.000000
   38       68.915113   0.000000
   39       70.280214   0.000000
   40       71.097368   0.000000
 
  0.2727273E+00  0.6440630E-17  0.0000000E+00  0.4507889E-02
    1        1.383591   1.000000
    2        3.689317   1.000000
    3        4.304757   1.000000
    4        5.319118   1.000000
    5        5.960689   1.000000
    6        6.699084   1.000000
    7        6.876211   1.000000
    8        7.651607   1.001368
    9        8.005314   0.957687
   10        8.244658   0.128295
   11        9.198515  -0.000000
   12       14.642627   0.000000
   13       17.062756   0.000000
   14       23.529693   0.000000
   15       29.608257   0.000000
   16       29.908452   0.000000
   17       31.316811   0.000000
   18       34.183831   0.000000
   19       37.104449   0.000000
   20       40.091715   0.000000
   21       40.845041   0.000000
   22       40.905096   0.000000
   23       41.258983   0.000000
   24       45.351374   0.000000
   25       50.908891   0.000000
   26       52.605342   0.000000
   27       53.458927   0.000000
   28       55.288797   0.000000
   29       56.651628   0.000000
   30       57.385376   0.000000
   31       59.111950   0.000000
   32       60.760111   0.000000
   33       61.149119   0.000000
   34       62.008759   0.000000
   35       62.574201   0.000000
   36       64.882149   0.000000
   37       65.574732   0.000000
   38       69.480707   0.000000
   39       70.088161   0.000000
   40       70.802189   0.000000
 
  0.3636364E+00  0.8385354E-17  0.0000000E+00  0.4507889E-02
    1        2.555593   1.000000
    2        3.390270   1.000000
    3        3.632413   1.000000
    4        5.579860   1.000000
    5        6.290964   1.000000
    6        6.353295   1.000000
    7        6.585095   1.000000
    8        8.879474  -0.000001
    9        9.022099  -0.000000
   10        9.035070  -0.000000
   11        9.219122  -0.000000
   12       16.725211   0.000000
   13       17.019926   0.000000
   14       20.727989   0.000000
   15       26.296938   0.000000
   16       27.921654   0.000000
   17       28.632846   0.000000
   18       33.197234   0.000000
   19       35.874387   0.000000
   20       39.131732   0.000000
   21       39.747769   0.000000
   22       41.928984   0.000000
   23       42.996566   0.000000
   24       45.698704   0.000000
   25       53.643807   0.000000
   26       54.450570   0.000000
   27       54.541162   0.000000
   28       57.766257   0.000000
   29       58.230282   0.000000
   30       58.729177   0.000000
   31       60.991700   0.000000
   32       61.568125   0.000000
   33       62.210195   0.000000
   34       62.534191   0.000000
   35       63.865130   0.000000
   36       65.573552   0.000000
   37       69.526301   0.000000
   38       69.546009   0.000000
   39       69.786493   0.000000
   40       69.865957   0.000000
 
  0.4545455E+00 -0.8130924E-18  0.0000000E+00  0.4507889E-02
    1        2.914761   1.000000
    2        3.196704   1.000000
    3        3.294216   1.000000
    4        6.055378   1.000000
    5        6.172978   1.000000
    6        6.421058   1.000000
    7        6.626262   1.000000
    8        9.220633  -0.000000
    9        9.420161  -0.000000
   10        9.571068  -0.000000
   11       10.856411  -0.000000
   12       14.587539   0.000000
   13       19.239673   0.000000
   14       20.818919   0.000000
   15       23.624985   0.000000
   16       25.991166   0.000000
   17       26.801683   0.000000
   18       32.518414   0.000000
   19       35.477352   0.000000
   20       37.929838   0.000000
   21       39.538465   0.000000
   22       42.788578   0.000000
   23       45.173551   0.000000
   24       45.873890   0.000000
   25       50.295242   0.000000
   26       55.438626   0.000000
   27       56.274260   0.000000
   28       59.667935   0.000000
   29       60.378503   0.000000
   30       60.810454   0.000000
   31       62.437618   0.000000
   32       62.486598   0.000000
   33       62.734057   0.000000
   34       65.261804   0.000000
   35       65.374301   0.000000
   36       67.454386   0.000000
   37       68.219166   0.000000
   38       68.234947   0.000000
   39       70.088217   0.000000
   40       70.482370   0.000000
 
  0.9090909E-01  0.9090909E-01  0.0000000E+00  0.4507889E-02
    1       -0.319057   1.000000
    2        3.277979   1.000000
    3        5.452924   1.000000
    4        5.635264   1.000000
    5        6.350576   1.000000
    6        6.455441   1.000000
    7        6.975852   1.000000
    8        7.073563   1.000000
    9        7.344491   1.000000
   10        7.528517   1.000060
   11        9.093983  -0.000000
   12       11.823342  -0.000000
   13       16.879592   0.000000
   14       29.229285   0.000000
   15       30.791632   0.000000
   16       34.101529   0.000000
   17       34.838848   0.000000
   18       36.378479   0.000000
   19       36.738813   0.000000
   20       39.049823   0.000000
   21       40.533068   0.000000
   22       44.449787   0.000000
   23       44.454563   0.000000
   24       45.536873   0.000000
   25       46.223099   0.000000
   26       46.558340   0.000000
   27       46.781709   0.000000
   28       52.664039   0.000000
   29       55.186615   0.000000
   30       55.845176   0.000000
   31       55.891730   0.000000
   32       59.395506   0.000000
   33       60.641406   0.000000
   34       62.571954   0.000000
   35       63.096741   0.000000
   36       63.106595   0.000000
   37       64.527335   0.000000
   38       69.238507   0.000000
   39       70.081581   0.000000
   40       71.341235   0.000000
 
  0.1818182E+00  0.9090909E-01  0.0000000E+00  0.9015778E-02
    1        0.902218   1.000000
    2        3.841432   1.000000
    3        4.668159   1.000000
    4        5.073229   1.000000
    5        6.053151   1.000000
    6        6.599683   1.000000
    7        6.951529   1.000000
    8        7.249099   1.000000
    9        7.773408   1.012468
   10        8.154506   0.455917
   11        9.112791  -0.000000
   12       13.853859   0.000000
   13       17.048012   0.000000
   14       25.576583   0.000000
   15       28.289443   0.000000
   16       31.373627   0.000000
   17       33.709025   0.000000
   18       34.236423   0.000000
   19       37.554083   0.000000
   20       38.487811   0.000000
   21       39.288067   0.000000
   22       43.928437   0.000000
   23       44.168936   0.000000
   24       45.134857   0.000000
   25       48.197566   0.000000
   26       49.034130   0.000000
   27       50.945901   0.000000
   28       55.773510   0.000000
   29       57.430379   0.000000
   30       58.224229   0.000000
   31       58.472437   0.000000
   32       60.471203   0.000000
   33       60.812833   0.000000
   34       61.917834   0.000000
   35       62.400112   0.000000
   36       62.887525   0.000000
   37       65.073524   0.000000
   38       69.708430   0.000000
   39       69.771619   0.000000
   40       71.074574   0.000000
 
  0.2727273E+00  0.9090909E-01  0.0000000E+00  0.9015778E-02
    1        2.283864   1.000000
    2        3.747771   1.000000
    3        3.926918   1.000000
    4        5.167697   1.000000
    5        6.136877   1.000000
    6        6.234842   1.000000
    7        6.832598   1.000000
    8        7.800055   1.017681
    9        8.654096  -0.000923
   10        9.117534  -0.000000
   11        9.213585  -0.000000
   12       16.139669   0.000000
   13       17.273617   0.000000
   14       21.879102   0.000000
   15       26.474855   0.000000
   16       28.017886   0.000000
   17       31.020943   0.000000
   18       32.476845   0.000000
   19       36.994887   0.000000
   20       38.148176   0.000000
   21       39.804610   0.000000
   22       43.689502   0.000000
   23       43.719444   0.000000
   24       46.385327   0.000000
   25       50.323831   0.000000
   26       52.936209   0.000000
   27       54.755378   0.000000
   28       55.672312   0.000000
   29       56.440949   0.000000
   30       59.361439   0.000000
   31       60.204110   0.000000
   32       61.771950   0.000000
   33       62.225195   0.000000
   34       62.654727   0.000000
   35       63.527448   0.000000
   36       65.071646   0.000000
   37       67.984315   0.000000
   38       68.960701   0.000000
   39       69.320948   0.000000
   40       71.348591   0.000000
 
  0.3636364E+00  0.9090909E-01  0.0000000E+00  0.9015778E-02
    1        3.064745   1.000000
    2        3.430656   1.000000
    3        3.472519   1.000000
    4        5.659358   1.000000
    5        6.044691   1.000000
    6        6.451387   1.000000
    7        6.526391   1.000000
    8        8.802253  -0.000017
    9        9.112508  -0.000000
   10        9.276887  -0.000000
   11       10.560285  -0.000000
   12       16.103949   0.000000
   13       18.514558   0.000000
   14       20.591428   0.000000
   15       25.005073   0.000000
   16       25.063968   0.000000
   17       27.789520   0.000000
   18       31.526197   0.000000
   19       36.006730   0.000000
   20       37.576266   0.000000
   21       40.735904   0.000000
   22       44.082485   0.000000
   23       45.115169   0.000000
   24       46.215458   0.000000
   25       52.233520   0.000000
   26       53.123124   0.000000
   27       55.428216   0.000000
   28       56.893074   0.000000
   29       58.731508   0.000000
   30       60.387971   0.000000
   31       60.870628   0.000000
   32       62.219722   0.000000
   33       62.786105   0.000000
   34       65.083719   0.000000
   35       66.348673   0.000000
   36       66.874673   0.000000
   37       67.089272   0.000000
   38       69.658471   0.000000
   39       70.537025   0.000000
   40       71.111595   0.000000
 
  0.4545455E+00  0.9090909E-01  0.0000000E+00  0.4507889E-02
    1        3.118454   1.000000
    2        3.320044   1.000000
    3        3.389456   1.000000
    4        6.010421   1.000000
    5        6.061046   1.000000
    6        6.275084   1.000000
    7        6.665422   1.000000
    8        9.108295  -0.000000
    9        9.365372  -0.000000
   10        9.384301  -0.000000
   11       11.875432  -0.000000
   12       14.266894   0.000000
   13       20.112208   0.000000
   14       21.261575   0.000000
   15       23.192525   0.000000
   16       24.285607   0.000000
   17       26.246428   0.000000
   18       31.177670   0.000000
   19       35.584799   0.000000
   20       37.414863   0.000000
   21       40.878351   0.000000
   22       44.984891   0.000000
   23       45.129552   0.000000
   24       46.876413   0.000000
   25       49.991455   0.000000
   26       54.977122   0.000000
   27       55.484991   0.000000
   28       58.042396   0.000000
   29       59.956813   0.000000
   30       59.958489   0.000000
   31       62.816909   0.000000
   32       62.842069   0.000000
   33       63.093095   0.000000
   34       63.694197   0.000000
   35       66.842944   0.000000
   36       68.753106   0.000000
   37       68.867541   0.000000
   38       69.161487   0.000000
   39       69.431612   0.000000
   40       72.121629   0.000000
 
  0.1818182E+00  0.1818182E+00  0.0000000E+00  0.4507889E-02
    1        2.209797   1.000000
    2        4.099614   1.000000
    3        4.299759   1.000000
    4        4.565604   1.000000
    5        6.106825   1.000000
    6        6.130389   1.000000
    7        7.010940   1.000000
    8        7.231875   1.000000
    9        8.630923  -0.001545
   10        9.012493  -0.000000
   11        9.284140  -0.000000
   12       15.860366   0.000000
   13       17.477292   0.000000
   14       23.487339   0.000000
   15       24.437278   0.000000
   16       29.413702   0.000000
   17       31.218038   0.000000
   18       33.440135   0.000000
   19       34.255140   0.000000
   20       39.488717   0.000000
   21       40.755648   0.000000
   22       45.057072   0.000000
   23       45.205214   0.000000
   24       47.421020   0.000000
   25       48.112282   0.000000
   26       50.260347   0.000000
   27       51.806097   0.000000
   28       57.121998   0.000000
   29       57.405870   0.000000
   30       59.035004   0.000000
   31       59.109320   0.000000
   32       61.876669   0.000000
   33       62.017790   0.000000
   34       63.987480   0.000000
   35       64.603158   0.000000
   36       65.040355   0.000000
   37       65.375443   0.000000
   38       68.792571   0.000000
   39       69.239900   0.000000
   40       72.359656   0.000000
 
  0.2727273E+00  0.1818182E+00  0.0000000E+00  0.9015778E-02
    1        3.412237   1.000000
    2        3.708037   1.000000
    3        3.992054   1.000000
    4        4.809253   1.000000
    5        5.840784   1.000000
    6        6.439858   1.000000
    7        6.575914   1.000000
    8        7.857347   1.030480
    9        8.925789  -0.000000
   10        9.221225  -0.000000
   11       10.698824  -0.000000
   12       17.788878   0.000000
   13       18.165706   0.000000
   14       20.692407   0.000000
   15       22.720980   0.000000
   16       26.871099   0.000000
   17       29.459768   0.000000
   18       29.953056   0.000000
   19       32.899219   0.000000
   20       41.274093   0.000000
   21       41.575486   0.000000
   22       45.143121   0.000000
   23       47.112086   0.000000
   24       48.191387   0.000000
   25       49.729748   0.000000
   26       51.440166   0.000000
   27       53.065997   0.000000
   28       54.919914   0.000000
   29       57.946661   0.000000
   30       58.931407   0.000000
   31       60.569482   0.000000
   32       62.003469   0.000000
   33       63.109877   0.000000
   34       64.611021   0.000000
   35       66.434783   0.000000
   36       66.862642   0.000000
   37       68.370768   0.000000
   38       69.521681   0.000000
   39       70.790448   0.000000
   40       72.070330   0.000000
 
  0.3636364E+00  0.1818182E+00  0.0000000E+00  0.9015778E-02
    1        3.515101   1.000000
    2        3.670982   1.000000
    3        3.860238   1.000000
    4        5.378071   1.000000
    5        5.857453   1.000000
    6        6.136502   1.000000
    7        6.736463   1.000000
    8        8.631492  -0.001527
    9        8.876949  -0.000001
   10        9.265527  -0.000000
   11       12.419531  -0.000000
   12       15.725548   0.000000
   13       20.502472   0.000000
   14       20.994464   0.000000
   15       21.973386   0.000000
   16       24.225738   0.000000
   17       26.994312   0.000000
   18       28.764022   0.000000
   19       32.227847   0.000000
   20       41.169176   0.000000
   21       43.281175   0.000000
   22       45.568276   0.000000
   23       47.226470   0.000000
   24       48.024438   0.000000
   25       52.046171   0.000000
   26       52.158895   0.000000
   27       54.113308   0.000000
   28       54.463564   0.000000
   29       58.370278   0.000000
   30       59.324679   0.000000
   31       59.903923   0.000000
   32       62.541147   0.000000
   33       63.100546   0.000000
   34       63.193733   0.000000
   35       67.525069   0.000000
   36       68.262836   0.000000
   37       70.049123   0.000000
   38       70.100737   0.000000
   39       71.174941   0.000000
   40       71.810982   0.000000
 
  0.2727273E+00  0.2727273E+00  0.0000000E+00  0.4507889E-02
    1        3.650209   1.000000
    2        4.128782   1.000000
    3        4.479896   1.000000
    4        4.512041   1.000000
    5        5.674072   1.000000
    6        6.158884   1.000000
    7        6.789109   1.000000
    8        8.157549   0.443114
    9        8.757700  -0.000063
   10        9.235581  -0.000000
   11       12.566098  -0.000000
   12       17.932274   0.000000
   13       18.444870   0.000000
   14       20.540205   0.000000
   15       21.943449   0.000000
   16       26.103978   0.000000
   17       26.495068   0.000000
   18       28.707926   0.000000
   19       29.640962   0.000000
   20       43.179845   0.000000
   21       44.208439   0.000000
   22       47.514538   0.000000
   23       48.544657   0.000000
   24       49.607941   0.000000
   25       49.830189   0.000000
   26       49.949962   0.000000
   27       52.861798   0.000000
   28       55.442817   0.000000
   29       55.762961   0.000000
   30       58.611902   0.000000
   31       59.680019   0.000000
   32       62.353774   0.000000
   33       63.107679   0.000000
   34       63.246797   0.000000
   35       67.402789   0.000000
   36       68.543165   0.000000
   37       68.544851   0.000000
   38       70.437976   0.000000
   39       71.710241   0.000000
   40       72.479997   0.000000
 
  0.3636364E+00  0.2727273E+00  0.0000000E+00  0.4507889E-02
    1        3.654496   1.000000
    2        4.255706   1.000000
    3        4.338897   1.000000
    4        4.887612   1.000000
    5        5.750369   1.000000
    6        5.842462   1.000000
    7        6.957673   1.000000
    8        8.569685  -0.005172
    9        8.694029  -0.000353
   10        8.905887  -0.000001
   11       14.385049   0.000000
   12       15.867389   0.000000
   13       18.061755   0.000000
   14       22.609798   0.000000
   15       22.909427   0.000000
   16       24.058072   0.000000
   17       26.031676   0.000000
   18       27.062982   0.000000
   19       29.008080   0.000000
   20       43.591824   0.000000
   21       46.399536   0.000000
   22       47.806634   0.000000
   23       48.074558   0.000000
   24       49.075576   0.000000
   25       50.614448   0.000000
   26       51.184216   0.000000
   27       54.252457   0.000000
   28       54.488269   0.000000
   29       54.798056   0.000000
   30       58.237740   0.000000
   31       59.535092   0.000000
   32       60.139666   0.000000
   33       63.073384   0.000000
   34       63.159699   0.000000
   35       67.526459   0.000000
   36       68.680717   0.000000
   37       70.896284   0.000000
   38       71.152927   0.000000
   39       71.163944   0.000000
   40       71.394212   0.000000
 
  0.0000000E+00  0.0000000E+00  0.9090909E-01  0.1502630E-02
    1       -1.262018   1.000000
    2        2.543028   1.000000
    3        5.731310   1.000000
    4        6.298432   1.000000
    5        6.298496   1.000000
    6        6.685461   1.000000
    7        6.685538   1.000000
    8        7.381570   1.000000
    9        7.727290   1.006039
   10        7.727310   1.006041
   11        9.010719  -0.000000
   12        9.010739  -0.000000
   13       17.215629   0.000000
   14       31.922404   0.000000
   15       33.205014   0.000000
   16       35.405494   0.000000
   17       38.476588   0.000000
   18       38.476650   0.000000
   19       39.168344   0.000000
   20       39.168518   0.000000
   21       41.610798   0.000000
   22       41.813880   0.000000
   23       41.813899   0.000000
   24       43.291368   0.000000
   25       45.817869   0.000000
   26       45.817888   0.000000
   27       47.942989   0.000000
   28       50.674668   0.000000
   29       50.675068   0.000000
   30       52.772676   0.000000
   31       52.772844   0.000000
   32       55.385550   0.000000
   33       62.456264   0.000000
   34       64.174981   0.000000
   35       64.175887   0.000000
   36       64.207021   0.000000
   37       66.539426   0.000000
   38       66.540164   0.000000
   39       66.945649   0.000000
   40       70.159165   0.000000
 
  0.9090909E-01  0.1944724E-17  0.9090909E-01  0.9015778E-02
    1       -0.909918   1.000000
    2        2.809439   1.000000
    3        5.698779   1.000000
    4        6.251919   1.000000
    5        6.333629   1.000000
    6        6.512004   1.000000
    7        6.686593   1.000000
    8        6.884646   1.000000
    9        7.590813   1.000325
   10        7.605343   1.000467
   11        9.052335  -0.000000
   12       10.171214  -0.000000
   13       17.267003   0.000000
   14       31.105411   0.000000
   15       33.194468   0.000000
   16       34.060078   0.000000
   17       35.572750   0.000000
   18       36.955799   0.000000
   19       38.478418   0.000000
   20       41.103453   0.000000
   21       41.122324   0.000000
   22       42.354014   0.000000
   23       42.926402   0.000000
   24       43.528055   0.000000
   25       46.908355   0.000000
   26       47.287885   0.000000
   27       48.470171   0.000000
   28       48.653792   0.000000
   29       51.547816   0.000000
   30       54.239905   0.000000
   31       55.120161   0.000000
   32       57.071482   0.000000
   33       60.995403   0.000000
   34       63.215951   0.000000
   35       63.918703   0.000000
   36       64.120217   0.000000
   37       65.695327   0.000000
   38       67.323489   0.000000
   39       68.607536   0.000000
   40       70.059559   0.000000
 
  0.1818182E+00 -0.9381881E-17  0.9090909E-01  0.9015778E-02
    1        0.076078   1.000000
    2        3.430163   1.000000
    3        5.197390   1.000000
    4        5.421855   1.000000
    5        6.092950   1.000000
    6        6.685613   1.000000
    7        7.043050   1.000000
    8        7.319243   1.000000
    9        7.325788   1.000000
   10        7.486087   1.000017
   11        9.123238  -0.000000
   12       12.013607  -0.000000
   13       17.460797   0.000000
   14       27.612117   0.000000
   15       32.229920   0.000000
   16       32.587593   0.000000
   17       33.627534   0.000000
   18       34.056444   0.000000
   19       38.496424   0.000000
   20       39.892649   0.000000
   21       40.180176   0.000000
   22       41.470434   0.000000
   23       43.913792   0.000000
   24       45.709975   0.000000
   25       47.739557   0.000000
   26       48.264651   0.000000
   27       49.671856   0.000000
   28       52.361917   0.000000
   29       54.673575   0.000000
   30       57.050527   0.000000
   31       57.829569   0.000000
   32       59.078801   0.000000
   33       59.954165   0.000000
   34       61.545748   0.000000
   35       62.815354   0.000000
   36       63.473052   0.000000
   37       65.515478   0.000000
   38       68.225350   0.000000
   39       69.840054   0.000000
   40       70.642883   0.000000
 
  0.2727273E+00  0.6440630E-17  0.9090909E-01  0.9015778E-02
    1        1.433539   1.000000
    2        3.702238   1.000000
    3        4.272469   1.000000
    4        5.328484   1.000000
    5        5.899346   1.000000
    6        6.732343   1.000000
    7        6.899984   1.000000
    8        7.690250   1.003050
    9        8.018812   0.931467
   10        8.223686   0.190893
   11        9.170982  -0.000000
   12       13.921928   0.000000
   13       17.913312   0.000000
   14       23.598077   0.000000
   15       29.153608   0.000000
   16       30.028106   0.000000
   17       31.631761   0.000000
   18       34.020242   0.000000
   19       37.024270   0.000000
   20       39.070108   0.000000
   21       39.610335   0.000000
   22       41.936780   0.000000
   23       42.255763   0.000000
   24       46.233608   0.000000
   25       51.025602   0.000000
   26       52.469616   0.000000
   27       53.093935   0.000000
   28       53.781014   0.000000
   29       57.289430   0.000000
   30       58.031932   0.000000
   31       59.426913   0.000000
   32       60.877463   0.000000
   33       60.891193   0.000000
   34       61.269752   0.000000
   35       63.192467   0.000000
   36       64.483251   0.000000
   37       65.833336   0.000000
   38       68.875735   0.000000
   39       69.348261   0.000000
   40       70.851031   0.000000
 
  0.3636364E+00  0.8385354E-17  0.9090909E-01  0.9015778E-02
    1        2.529687   1.000000
    2        3.355889   1.000000
    3        3.749767   1.000000
    4        5.337769   1.000000
    5        6.357823   1.000000
    6        6.592167   1.000000
    7        6.625058   1.000000
    8        8.884740  -0.000001
    9        8.963473  -0.000000
   10        8.979563  -0.000000
   11        9.226707  -0.000000
   12       15.390259   0.000000
   13       18.328216   0.000000
   14       20.875264   0.000000
   15       25.902240   0.000000
   16       28.057969   0.000000
   17       29.062964   0.000000
   18       33.178908   0.000000
   19       35.865053   0.000000
   20       37.836691   0.000000
   21       40.698554   0.000000
   22       41.043702   0.000000
   23       43.359392   0.000000
   24       46.816611   0.000000
   25       52.019743   0.000000
   26       54.437464   0.000000
   27       55.838321   0.000000
   28       56.774739   0.000000
   29       58.042445   0.000000
   30       59.633851   0.000000
   31       60.919972   0.000000
   32       61.538441   0.000000
   33       62.192444   0.000000
   34       62.876871   0.000000
   35       63.931748   0.000000
   36       65.534603   0.000000
   37       68.495439   0.000000
   38       69.111042   0.000000
   39       69.904506   0.000000
   40       70.572290   0.000000
 
  0.4545455E+00 -0.8130924E-18  0.9090909E-01  0.9015778E-02
    1        2.846523   1.000000
    2        3.013993   1.000000
    3        3.619425   1.000000
    4        5.430299   1.000000
    5        6.468959   1.000000
    6        6.603103   1.000000
    7        6.910898   1.000000
    8        9.141738  -0.000000
    9        9.429623  -0.000000
   10        9.573868  -0.000000
   11       10.754175  -0.000000
   12       14.388573   0.000000
   13       19.084858   0.000000
   14       20.855602   0.000000
   15       23.765384   0.000000
   16       26.384896   0.000000
   17       26.947884   0.000000
   18       32.535641   0.000000
   19       35.466926   0.000000
   20       36.960598   0.000000
   21       40.589411   0.000000