       N       E                     dE             d eps       ncg     rms          rms(c)
DAV:   1     0.596671856661E+02    0.59667E+02   -0.24910E+03  9448   0.329E+02
DAV:   2    -0.146837520975E+02   -0.74351E+02   -0.63252E+02  7904   0.970E+01
DAV:   3    -0.188003909513E+02   -0.41166E+01   -0.39463E+01  9616   0.237E+01
DAV:   4    -0.188152876378E+02   -0.14897E-01   -0.14890E-01  8992   0.149E+00
DAV:   5    -0.188152980525E+02   -0.10415E-04   -0.10415E-04  9288   0.378E-02    0.191E+01
DAV:   6    -0.161034657557E+02    0.27118E+01   -0.14253E+00 11256   0.226E+01    0.146E+00
DAV:   7    -0.159774276373E+02    0.12604E+00   -0.67749E-02  9864   0.371E+00    0.136E+00
DAV:   8    -0.159437285084E+02    0.33699E-01   -0.22138E-03 10264   0.299E-01    0.555E-01
DAV:   9    -0.159354979938E+02    0.82305E-02   -0.81953E-04 10552   0.160E-01    0.621E-02
DAV:  10    -0.159354975383E+02    0.45553E-06   -0.26534E-05  8528   0.225E-02    0.210E-02
DAV:  11    -0.159354837519E+02    0.13786E-04   -0.18152E-07  8056   0.411E-03    0.155E-03
DAV:  12    -0.159354827828E+02    0.96912E-06   -0.74069E-08  5944   0.147E-03
   1 F= -.15935483E+02 E0= -.15935720E+02  d E =0.713136E-03
