 vasp.6.2.0 18Jan21 (build Mar 17 2021 09:06:54) complex                        
  
 executed on             LinuxIFC date 2021.09.09  12:02:30
 serial version


--------------------------------------------------------------------------------------------------------


 INCAR:
   ENCUT = 280.000000
   SIGMA = 0.200000
   EDIFF = 1.00e-06
   GGA = PE
   PREC = normal
   IBRION = 1
   ICHARG = 1
   ISIF = 2
   ISMEAR = 1
   KPAR = 1
   NBANDS = 40
   NSW = 0
   NCORE = 1
   LCHARG = .TRUE.

 POTCAR:    PAW_PBE Fe 06Sep2000                  
 POTCAR:    PAW_PBE Fe 06Sep2000                  
   SHA256 =  cd5a22d9368cc8b5cc476bea79732366149640da08ac9009b0e1b7fc627eea28 Fe/POTCAR             
   COPYR  = (c) Copyright 06Sep2000 Georg Kresse                                                    
   COPYR  = This file is part of the software VASP. Any use, copying, and all other rights are regul
   COPYR  = If you do not have a valid VASP license, you may not use, copy or distribute this file. 
   VRHFIN =Fe:  d7 s1                                                                               
   LEXCH  = PE                                                                                      
   EATOM  =   594.3153 eV,   43.6809 Ry                                                             
                                                                                                    
   TITEL  = PAW_PBE Fe 06Sep2000                                                                    
   LULTRA =        F    use ultrasoft PP ?                                                          
   IUNSCR =        1    unscreen: 0-lin 1-nonlin 2-no                                               
   RPACOR =    2.000    partial core radius                                                         
   POMASS =   55.847; ZVAL   =    8.000    mass and valenz                                          
   RCORE  =    2.300    outmost cutoff radius                                                       
   RWIGS  =    2.460; RWIGS  =    1.302    wigner-seitz radius (au A)                               
   ENMAX  =  267.882; ENMIN  =  200.911 eV                                                          
   RCLOC  =    1.701    cutoff for local pot                                                        
   LCOR   =        T    correct aug charges                                                         
   LPAW   =        T    paw PP                                                                      
   EAUG   =  511.368                                                                                
   DEXC   =    0.000                                                                                
   RMAX   =    2.356    core radius for proj-oper                                                   
   RAUG   =    1.300    factor for augmentation sphere                                              
   RDEP   =    2.442    radius for radial grids                                                     
   RDEPT  =    1.890    core radius for aug-charge                                                  
                                                                                                    
   Atomic configuration                                                                             
    9 entries                                                                                       
     n  l   j            E        occ.                                                              
     1  0  0.50     -6993.8440   2.0000                                                             
     2  0  0.50      -814.6047   2.0000                                                             
     2  1  1.50      -693.3689   6.0000                                                             
     3  0  0.50       -89.4732   2.0000                                                             
     3  1  1.50       -55.6373   6.0000                                                             
     3  2  2.50        -3.8151   7.0000                                                             
     4  0  0.50        -4.2551   1.0000                                                             
     4  1  1.50        -3.4015   0.0000                                                             
     4  3  2.50        -1.3606   0.0000                                                             
   Description                                                                                      
     l       E           TYP  RCUT    TYP  RCUT                                                     
     2     -3.8151135     23  2.300                                                                 
     2     -5.1756961     23  2.300                                                                 
     0     -4.2550963     23  2.300                                                                 
     0      7.2035603     23  2.300                                                                 
     1     -2.7211652     23  2.300                                                                 
     1     18.4316424     23  2.300                                                                 
  local pseudopotential read in
  partial core-charges read in
  partial kinetic energy density read in
  atomic valenz-charges read in
  non local Contribution for L=           2  read in
    real space projection operators read in
  non local Contribution for L=           2  read in
    real space projection operators read in
  non local Contribution for L=           0  read in
    real space projection operators read in
  non local Contribution for L=           0  read in
    real space projection operators read in
  non local Contribution for L=           1  read in
    real space projection operators read in
  non local Contribution for L=           1  read in
    real space projection operators read in
    PAW grid and wavefunctions read in
 
   number of l-projection  operators is LMAX  =           6
   number of lm-projection operators is LMMAX =          18
 
  PAW_PBE Fe 06Sep2000                  :
 energy of atom  1       EATOM= -594.3153
 kinetic energy error for atom=    0.0278 (will be added to EATOM!!)
 
 
 POSCAR: Fe
  positions in cartesian coordinates
  No initial velocities read in
 exchange correlation table for  LEXCH =        8
   RHO(1)=    0.500       N(1)  =     2000
   RHO(2)=  100.500       N(2)  =     4000
 


--------------------------------------------------------------------------------------------------------


 ion  position               nearest neighbor table
   1  0.000  0.000  0.000-   2 2.39   2 2.39   2 2.39   2 2.39   2 2.39   2 2.39
   2  0.333  0.667  0.500-   1 2.39   1 2.39   1 2.39   1 2.39   1 2.39   1 2.39
 
  LATTYP: Found a hexagonal cell.
 ALAT       =     2.3067000000
 C/A-ratio  =     1.7244635193
  
  Lattice vectors:
  
 A1 = (   2.3067000000,   0.0000000000,   0.0000000000)
 A2 = (  -1.1533500000,   1.9976607989,   0.0000000000)
 A3 = (   0.0000000000,   0.0000000000,   3.9778200000)


Analysis of symmetry for initial positions (statically):
=====================================================================
 Subroutine PRICEL returns:
 Original cell was already a primitive cell.
 

 Routine SETGRP: Setting up the symmetry group for a 
 hexagonal supercell.


 Subroutine GETGRP returns: Found 24 space group operations
 (whereof 12 operations were pure point group operations)
 out of a pool of 24 trial point group operations.


The static configuration has the point symmetry D_3h.
 The point group associated with its full space group is D_6h.


Analysis of symmetry for dynamics (positions and initial velocities):
=====================================================================
 Subroutine PRICEL returns:
 Original cell was already a primitive cell.
 

 Routine SETGRP: Setting up the symmetry group for a 
 hexagonal supercell.


 Subroutine GETGRP returns: Found 24 space group operations
 (whereof 12 operations were pure point group operations)
 out of a pool of 24 trial point group operations.


The dynamic configuration has the point symmetry D_3h.
 The point group associated with its full space group is D_6h.


 Subroutine INISYM returns: Found 24 space group operations
 (whereof 12 operations are pure point group operations),
 and found     1 'primitive' translations


----------------------------------------------------------------------------------------

                                     Primitive cell                                     

  volume of cell :      18.3298

  direct lattice vectors                    reciprocal lattice vectors
     2.306700000  0.000000000  0.000000000     0.433519747  0.250292743  0.000000000
    -1.153350000  1.997660799  0.000000000     0.000000000  0.500585485  0.000000000
     0.000000000  0.000000000  3.977820000     0.000000000  0.000000000  0.251393980

  length of vectors
     2.306700000  2.306700000  3.977820000     0.500585485  0.500585485  0.251393980

  position of ions in fractional coordinates (direct lattice)
     0.000000000  0.000000000  0.000000000
     0.333333333  0.666666667  0.500000000

  ion indices of the primitive-cell ions
   primitive index   ion index
                 1           1
                 2           2

----------------------------------------------------------------------------------------

 
 
 KPOINTS: KPOINTS created by Atomic Simulation Env

Automatic generation of k-mesh.
 Grid dimensions read from file:
 generate k-points for:   11   11   11

 Generating k-lattice:

  Cartesian coordinates                     Fractional coordinates (reciprocal lattice)
     0.039410886  0.022753886  0.000000000     0.090909091  0.000000000  0.000000000
     0.000000000  0.045507771  0.000000000     0.000000000  0.090909091  0.000000000
     0.000000000  0.000000000  0.022853998     0.000000000  0.000000000  0.090909091

  Length of vectors
     0.045507771  0.045507771  0.022853998

  Shift w.r.t. Gamma in fractional coordinates (k-lattice)
     0.000000000  0.000000000  0.000000000

 
 Subroutine IBZKPT returns following result:
 ===========================================
 
 Found     96 irreducible k-points:
 
 Following reciprocal coordinates:
            Coordinates               Weight
  0.000000  0.000000  0.000000      1.000000
  0.090909  0.000000  0.000000      6.000000
  0.181818 -0.000000  0.000000      6.000000
  0.272727  0.000000  0.000000      6.000000
  0.363636  0.000000  0.000000      6.000000
  0.454545 -0.000000  0.000000      6.000000
  0.090909  0.090909  0.000000      6.000000
  0.181818  0.090909  0.000000     12.000000
  0.272727  0.090909  0.000000     12.000000
  0.363636  0.090909  0.000000     12.000000
  0.454545  0.090909  0.000000      6.000000
  0.181818  0.181818  0.000000      6.000000
  0.272727  0.181818  0.000000     12.000000
  0.363636  0.181818  0.000000     12.000000
  0.272727  0.272727  0.000000      6.000000
  0.363636  0.272727  0.000000      6.000000
  0.000000  0.000000  0.090909      2.000000
  0.090909  0.000000  0.090909     12.000000
  0.181818 -0.000000  0.090909     12.000000
  0.272727  0.000000  0.090909     12.000000
  0.363636  0.000000  0.090909     12.000000
  0.454545 -0.000000  0.090909     12.000000
  0.090909  0.090909  0.090909     12.000000
  0.181818  0.090909  0.090909     24.000000
  0.272727  0.090909  0.090909     24.000000
  0.363636  0.090909  0.090909     24.000000
  0.454545  0.090909  0.090909     12.000000
  0.181818  0.181818  0.090909     12.000000
  0.272727  0.181818  0.090909     24.000000
  0.363636  0.181818  0.090909     24.000000
  0.272727  0.272727  0.090909     12.000000
  0.363636  0.272727  0.090909     12.000000
  0.000000  0.000000  0.181818      2.000000
  0.090909  0.000000  0.181818     12.000000
  0.181818 -0.000000  0.181818     12.000000
  0.272727  0.000000  0.181818     12.000000
  0.363636  0.000000  0.181818     12.000000
  0.454545 -0.000000  0.181818     12.000000
  0.090909  0.090909  0.181818     12.000000
  0.181818  0.090909  0.181818     24.000000
  0.272727  0.090909  0.181818     24.000000
  0.363636  0.090909  0.181818     24.000000
  0.454545  0.090909  0.181818     12.000000
  0.181818  0.181818  0.181818     12.000000
  0.272727  0.181818  0.181818     24.000000
  0.363636  0.181818  0.181818     24.000000
  0.272727  0.272727  0.181818     12.000000
  0.363636  0.272727  0.181818     12.000000
  0.000000  0.000000  0.272727      2.000000
  0.090909  0.000000  0.272727     12.000000
  0.181818 -0.000000  0.272727     12.000000
  0.272727  0.000000  0.272727     12.000000
  0.363636  0.000000  0.272727     12.000000
  0.454545 -0.000000  0.272727     12.000000
  0.090909  0.090909  0.272727     12.000000
  0.181818  0.090909  0.272727     24.000000
  0.272727  0.090909  0.272727     24.000000
  0.363636  0.090909  0.272727     24.000000
  0.454545  0.090909  0.272727     12.000000
  0.181818  0.181818  0.272727     12.000000
  0.272727  0.181818  0.272727     24.000000
  0.363636  0.181818  0.272727     24.000000
  0.272727  0.272727  0.272727     12.000000
  0.363636  0.272727  0.272727     12.000000
  0.000000  0.000000  0.363636      2.000000
  0.090909  0.000000  0.363636     12.000000
  0.181818 -0.000000  0.363636     12.000000
  0.272727  0.000000  0.363636     12.000000
  0.363636  0.000000  0.363636     12.000000
  0.454545 -0.000000  0.363636     12.000000
  0.090909  0.090909  0.363636     12.000000
  0.181818  0.090909  0.363636     24.000000
  0.272727  0.090909  0.363636     24.000000
  0.363636  0.090909  0.363636     24.000000
  0.454545  0.090909  0.363636     12.000000
  0.181818  0.181818  0.363636     12.000000
  0.272727  0.181818  0.363636     24.000000
  0.363636  0.181818  0.363636     24.000000
  0.272727  0.272727  0.363636     12.000000
  0.363636  0.272727  0.363636     12.000000
  0.000000  0.000000  0.454545      2.000000
  0.090909  0.000000  0.454545     12.000000
  0.181818 -0.000000  0.454545     12.000000
  0.272727  0.000000  0.454545     12.000000
  0.363636  0.000000  0.454545     12.000000
  0.454545 -0.000000  0.454545     12.000000
  0.090909  0.090909  0.454545     12.000000
  0.181818  0.090909  0.454545     24.000000
  0.272727  0.090909  0.454545     24.000000
  0.363636  0.090909  0.454545     24.000000
  0.454545  0.090909  0.454545     12.000000
  0.181818  0.181818  0.454545     12.000000
  0.272727  0.181818  0.454545     24.000000
  0.363636  0.181818  0.454545     24.000000
  0.272727  0.272727  0.454545     12.000000
  0.363636  0.272727  0.454545     12.000000
 
 Following cartesian coordinates:
            Coordinates               Weight
  0.000000  0.000000  0.000000      1.000000
  0.039411  0.022754  0.000000      6.000000
  0.078822  0.045508  0.000000      6.000000
  0.118233  0.068262  0.000000      6.000000
  0.157644  0.091016  0.000000      6.000000
  0.197054  0.113769  0.000000      6.000000
  0.039411  0.068262  0.000000      6.000000
  0.078822  0.091016  0.000000     12.000000
  0.118233  0.113769  0.000000     12.000000
  0.157644  0.136523  0.000000     12.000000
  0.197054  0.159277  0.000000      6.000000
  0.078822  0.136523  0.000000      6.000000
  0.118233  0.159277  0.000000     12.000000
  0.157644  0.182031  0.000000     12.000000
  0.118233  0.204785  0.000000      6.000000
  0.157644  0.227539  0.000000      6.000000
  0.000000  0.000000  0.022854      2.000000
  0.039411  0.022754  0.022854     12.000000
  0.078822  0.045508  0.022854     12.000000
  0.118233  0.068262  0.022854     12.000000
  0.157644  0.091016  0.022854     12.000000
  0.197054  0.113769  0.022854     12.000000
  0.039411  0.068262  0.022854     12.000000
  0.078822  0.091016  0.022854     24.000000
  0.118233  0.113769  0.022854     24.000000
  0.157644  0.136523  0.022854     24.000000
  0.197054  0.159277  0.022854     12.000000
  0.078822  0.136523  0.022854     12.000000
  0.118233  0.159277  0.022854     24.000000
  0.157644  0.182031  0.022854     24.000000
  0.118233  0.204785  0.022854     12.000000
  0.157644  0.227539  0.022854     12.000000
  0.000000  0.000000  0.045708      2.000000
  0.039411  0.022754  0.045708     12.000000
  0.078822  0.045508  0.045708     12.000000
  0.118233  0.068262  0.045708     12.000000
  0.157644  0.091016  0.045708     12.000000
  0.197054  0.113769  0.045708     12.000000
  0.039411  0.068262  0.045708     12.000000
  0.078822  0.091016  0.045708     24.000000
  0.118233  0.113769  0.045708     24.000000
  0.157644  0.136523  0.045708     24.000000
  0.197054  0.159277  0.045708     12.000000
  0.078822  0.136523  0.045708     12.000000
  0.118233  0.159277  0.045708     24.000000
  0.157644  0.182031  0.045708     24.000000
  0.118233  0.204785  0.045708     12.000000
  0.157644  0.227539  0.045708     12.000000
  0.000000  0.000000  0.068562      2.000000
  0.039411  0.022754  0.068562     12.000000
  0.078822  0.045508  0.068562     12.000000
  0.118233  0.068262  0.068562     12.000000
  0.157644  0.091016  0.068562     12.000000
  0.197054  0.113769  0.068562     12.000000
  0.039411  0.068262  0.068562     12.000000
  0.078822  0.091016  0.068562     24.000000
  0.118233  0.113769  0.068562     24.000000
  0.157644  0.136523  0.068562     24.000000
  0.197054  0.159277  0.068562     12.000000
  0.078822  0.136523  0.068562     12.000000
  0.118233  0.159277  0.068562     24.000000
  0.157644  0.182031  0.068562     24.000000
  0.118233  0.204785  0.068562     12.000000
  0.157644  0.227539  0.068562     12.000000
  0.000000  0.000000  0.091416      2.000000
  0.039411  0.022754  0.091416     12.000000
  0.078822  0.045508  0.091416     12.000000
  0.118233  0.068262  0.091416     12.000000
  0.157644  0.091016  0.091416     12.000000
  0.197054  0.113769  0.091416     12.000000
  0.039411  0.068262  0.091416     12.000000
  0.078822  0.091016  0.091416     24.000000
  0.118233  0.113769  0.091416     24.000000
  0.157644  0.136523  0.091416     24.000000
  0.197054  0.159277  0.091416     12.000000
  0.078822  0.136523  0.091416     12.000000
  0.118233  0.159277  0.091416     24.000000
  0.157644  0.182031  0.091416     24.000000
  0.118233  0.204785  0.091416     12.000000
  0.157644  0.227539  0.091416     12.000000
  0.000000  0.000000  0.114270      2.000000
  0.039411  0.022754  0.114270     12.000000
  0.078822  0.045508  0.114270     12.000000
  0.118233  0.068262  0.114270     12.000000
  0.157644  0.091016  0.114270     12.000000
  0.197054  0.113769  0.114270     12.000000
  0.039411  0.068262  0.114270     12.000000
  0.078822  0.091016  0.114270     24.000000
  0.118233  0.113769  0.114270     24.000000
  0.157644  0.136523  0.114270     24.000000
  0.197054  0.159277  0.114270     12.000000
  0.078822  0.136523  0.114270     12.000000
  0.118233  0.159277  0.114270     24.000000
  0.157644  0.182031  0.114270     24.000000
  0.118233  0.204785  0.114270     12.000000
  0.157644  0.227539  0.114270     12.000000
 


--------------------------------------------------------------------------------------------------------




 Dimension of arrays:
   k-points           NKPTS =     96   k-points in BZ     NKDIM =     96   number of bands    NBANDS=     40
   number of dos      NEDOS =    301   number of ions     NIONS =      2
   non local maximal  LDIM  =      6   non local SUM 2l+1 LMDIM =     18
   total plane-waves  NPLWV =   1600
   max r-space proj   IRMAX =      1   max aug-charges    IRDMAX=   3309
   dimension x,y,z NGX =    10 NGY =   10 NGZ =   16
   dimension x,y,z NGXF=    20 NGYF=   20 NGZF=   32
   support grid    NGXF=    20 NGYF=   20 NGZF=   32
   ions per type =               2
   NGX,Y,Z   is equivalent  to a cutoff of   7.21,  7.21,  6.69 a.u.
   NGXF,Y,Z  is equivalent  to a cutoff of  14.41, 14.41, 13.37 a.u.

 SYSTEM =  unknown system                          
 POSCAR =  Fe                                      

 Startparameter for this run:
   NWRITE =      2    write-flag & timer
   PREC   = normal    normal or accurate (medium, high low for compatibility)
   ISTART =      0    job   : 0-new  1-cont  2-samecut
   ICHARG =      1    charge: 1-file 2-atom 10-const
   ISPIN  =      1    spin polarized calculation?
   LNONCOLLINEAR =      F non collinear calculations
   LSORBIT =      F    spin-orbit coupling
   INIWAV =      1    electr: 0-lowe 1-rand  2-diag
   LASPH  =      F    aspherical Exc in radial PAW
   METAGGA=      F    non-selfconsistent MetaGGA calc.

 Electronic Relaxation 1
   ENCUT  =  280.0 eV  20.58 Ry    4.54 a.u.   3.15  3.15  5.43*2*pi/ulx,y,z
   ENINI  =  280.0     initial cutoff
   ENAUG  =  511.4 eV  augmentation charge cutoff
   NELM   =     60;   NELMIN=  2; NELMDL= -5     # of ELM steps 
   EDIFF  = 0.1E-05   stopping-criterion for ELM
   LREAL  =      F    real-space projection
   NLSPLINE    = F    spline interpolate recip. space projectors
   LCOMPAT=      F    compatible to vasp.4.4
   GGA_COMPAT  = T    GGA compatible to vasp.4.4-vasp.4.6
   LMAXPAW     = -100 max onsite density
   LMAXMIX     =    2 max onsite mixed and CHGCAR
   VOSKOWN=      0    Vosko Wilk Nusair interpolation
   ROPT   =    0.00000
 Ionic relaxation
   EDIFFG = 0.1E-04   stopping-criterion for IOM
   NSW    =      0    number of steps for IOM
   NBLOCK =      1;   KBLOCK =      1    inner block; outer block 
   IBRION =     -1    ionic relax: 0-MD 1-quasi-New 2-CG
   NFREE  =      0    steps in history (QN), initial steepest desc. (CG)
   ISIF   =      2    stress and relaxation
   IWAVPR =      0    prediction:  0-non 1-charg 2-wave 3-comb
   ISYM   =      2    0-nonsym 1-usesym 2-fastsym
   LCORR  =      T    Harris-Foulkes like correction to forces

   POTIM  = 0.5000    time-step for ionic-motion
   TEIN   =    0.0    initial temperature
   TEBEG  =    0.0;   TEEND  =   0.0 temperature during run
   SMASS  =  -3.00    Nose mass-parameter (am)
   estimated Nose-frequenzy (Omega)   =  0.10E-29 period in steps = 0.13E+47 mass=  -0.122E-27a.u.
   SCALEE = 1.0000    scale energy and forces
   NPACO  =    256;   APACO  = 16.0  distance and # of slots for P.C.
   PSTRESS=    0.0 pullay stress

  Mass of Ions in am
   POMASS =  55.85
  Ionic Valenz
   ZVAL   =   8.00
  Atomic Wigner-Seitz radii
   RWIGS  =  -1.00
  virtual crystal weights 
   VCA    =   1.00
   NELECT =      16.0000    total number of electrons
   NUPDOWN=      -1.0000    fix difference up-down

 DOS related values:
   EMIN   =  10.00;   EMAX   =-10.00  energy-range for DOS
   EFERMI =   0.00
   ISMEAR =     1;   SIGMA  =   0.20  broadening in eV -4-tet -1-fermi 0-gaus

 Electronic relaxation 2 (details)
   IALGO  =     38    algorithm
   LDIAG  =      T    sub-space diagonalisation (order eigenvalues)
   LSUBROT=      F    optimize rotation matrix (better conditioning)
   TURBO    =      0    0=normal 1=particle mesh
   IRESTART =      0    0=no restart 2=restart with 2 vectors
   NREBOOT  =      0    no. of reboots
   NMIN     =      0    reboot dimension
   EREF     =   0.00    reference energy to select bands
   IMIX   =      4    mixing-type and parameters
     AMIX     =   0.40;   BMIX     =  1.00
     AMIX_MAG =   1.60;   BMIX_MAG =  1.00
     AMIN     =   0.10
     WC   =   100.;   INIMIX=   1;  MIXPRE=   1;  MAXMIX= -45

 Intra band minimization:
   WEIMIN = 0.0000     energy-eigenvalue tresh-hold
   EBREAK =  0.62E-08  absolut break condition
   DEPER  =   0.30     relativ break condition  

   TIME   =   0.40     timestep for ELM

  volume/ion in A,a.u.               =       9.16        61.85
  Fermi-wavevector in a.u.,A,eV,Ry     =   1.564572  2.956612 33.305496  2.447885
  Thomas-Fermi vector in A             =   2.667176
 
 Write flags
   LWAVE        =      T    write WAVECAR
   LDOWNSAMPLE  =      F    k-point downsampling of WAVECAR
   LCHARG       =      T    write CHGCAR
   LVTOT        =      F    write LOCPOT, total local potential
   LVHAR        =      F    write LOCPOT, Hartree potential only
   LELF         =      F    write electronic localiz. function (ELF)
   LORBIT       =      0    0 simple, 1 ext, 2 COOP (PROOUT), +10 PAW based schemes


 Dipole corrections
   LMONO  =      F    monopole corrections only (constant potential shift)
   LDIPOL =      F    correct potential (dipole corrections)
   IDIPOL =      0    1-x, 2-y, 3-z, 4-all directions 
   EPSILON=  1.0000000 bulk dielectric constant

 Exchange correlation treatment:
   GGA     =    PE    GGA type
   LEXCH   =     8    internal setting for exchange type
   VOSKOWN=      0    Vosko Wilk Nusair interpolation
   LHFCALC =     F    Hartree Fock is set to
   LHFONE  =     F    Hartree Fock one center treatment
   AEXX    =    0.0000 exact exchange contribution

 Linear response parameters
   LEPSILON=     F    determine dielectric tensor
   LRPA    =     F    only Hartree local field effects (RPA)
   LNABLA  =     F    use nabla operator in PAW spheres
   LVEL    =     F    velocity operator in full k-point grid
   LINTERFAST=   F  fast interpolation
   KINTER  =     0    interpolate to denser k-point grid
   CSHIFT  =0.1000    complex shift for real part using Kramers Kronig
   OMEGAMAX=  -1.0    maximum frequency
   DEG_THRESHOLD= 0.2000000E-02 threshold for treating states as degnerate
   RTIME   =   -0.100 relaxation time in fs
  (WPLASMAI=    0.000 imaginary part of plasma frequency in eV, 0.658/RTIME)
   DFIELD  = 0.0000000 0.0000000 0.0000000 field for delta impulse in time
 
 Orbital magnetization related:
   ORBITALMAG=     F  switch on orbital magnetization
   LCHIMAG   =     F  perturbation theory with respect to B field
   DQ        =  0.001000  dq finite difference perturbation B field
   LLRAUG    =     F  two centre corrections for induced B field



--------------------------------------------------------------------------------------------------------


 Static calculation
 charge density and potential will be updated during run
 non-spin polarized calculation
 Variant of blocked Davidson
 Davidson routine will perform the subspace rotation
 perform sub-space diagonalisation
    after iterative eigenvector-optimisation
 modified Broyden-mixing scheme, WC =      100.0
 initial mixing is a Kerker type mixing with AMIX =  0.4000 and BMIX =      1.0000
 Hartree-type preconditioning will be used
 using additional bands           32
 reciprocal scheme for non local part
 use partial core corrections
 calculate Harris-corrections to forces 
   (improved forces if not selfconsistent)
 use gradient corrections 
 use of overlap-Matrix (Vanderbilt PP)
 Methfessel and Paxton  Order N= 1 SIGMA  =   0.20


--------------------------------------------------------------------------------------------------------


  energy-cutoff  :      280.00
  volume of cell :       18.33
      direct lattice vectors                 reciprocal lattice vectors
     2.306700000  0.000000000  0.000000000     0.433519747  0.250292743  0.000000000
    -1.153350000  1.997660799  0.000000000     0.000000000  0.500585485  0.000000000
     0.000000000  0.000000000  3.977820000     0.000000000  0.000000000  0.251393980

  length of vectors
     2.306700000  2.306700000  3.977820000     0.500585485  0.500585485  0.251393980


 
 k-points in units of 2pi/SCALE and weight: KPOINTS created by Atomic Simulation Env
   0.00000000  0.00000000  0.00000000       0.001
   0.03941089  0.02275389  0.00000000       0.005
   0.07882177  0.04550777  0.00000000       0.005
   0.11823266  0.06826166  0.00000000       0.005
   0.15764354  0.09101554  0.00000000       0.005
   0.19705443  0.11376943  0.00000000       0.005
   0.03941089  0.06826166  0.00000000       0.005
   0.07882177  0.09101554  0.00000000       0.009
   0.11823266  0.11376943  0.00000000       0.009
   0.15764354  0.13652331  0.00000000       0.009
   0.19705443  0.15927720  0.00000000       0.005
   0.07882177  0.13652331  0.00000000       0.005
   0.11823266  0.15927720  0.00000000       0.009
   0.15764354  0.18203109  0.00000000       0.009
   0.11823266  0.20478497  0.00000000       0.005
   0.15764354  0.22753886  0.00000000       0.005
   0.00000000  0.00000000  0.02285400       0.002
   0.03941089  0.02275389  0.02285400       0.009
   0.07882177  0.04550777  0.02285400       0.009
   0.11823266  0.06826166  0.02285400       0.009
   0.15764354  0.09101554  0.02285400       0.009
   0.19705443  0.11376943  0.02285400       0.009
   0.03941089  0.06826166  0.02285400       0.009
   0.07882177  0.09101554  0.02285400       0.018
   0.11823266  0.11376943  0.02285400       0.018
   0.15764354  0.13652331  0.02285400       0.018
   0.19705443  0.15927720  0.02285400       0.009
   0.07882177  0.13652331  0.02285400       0.009
   0.11823266  0.15927720  0.02285400       0.018
   0.15764354  0.18203109  0.02285400       0.018
   0.11823266  0.20478497  0.02285400       0.009
   0.15764354  0.22753886  0.02285400       0.009
   0.00000000  0.00000000  0.04570800       0.002
   0.03941089  0.02275389  0.04570800       0.009
   0.07882177  0.04550777  0.04570800       0.009
   0.11823266  0.06826166  0.04570800       0.009
   0.15764354  0.09101554  0.04570800       0.009
   0.19705443  0.11376943  0.04570800       0.009
   0.03941089  0.06826166  0.04570800       0.009
   0.07882177  0.09101554  0.04570800       0.018
   0.11823266  0.11376943  0.04570800       0.018
   0.15764354  0.13652331  0.04570800       0.018
   0.19705443  0.15927720  0.04570800       0.009
   0.07882177  0.13652331  0.04570800       0.009
   0.11823266  0.15927720  0.04570800       0.018
   0.15764354  0.18203109  0.04570800       0.018
   0.11823266  0.20478497  0.04570800       0.009
   0.15764354  0.22753886  0.04570800       0.009
   0.00000000  0.00000000  0.06856199       0.002
   0.03941089  0.02275389  0.06856199       0.009
   0.07882177  0.04550777  0.06856199       0.009
   0.11823266  0.06826166  0.06856199       0.009
   0.15764354  0.09101554  0.06856199       0.009
   0.19705443  0.11376943  0.06856199       0.009
   0.03941089  0.06826166  0.06856199       0.009
   0.07882177  0.09101554  0.06856199       0.018
   0.11823266  0.11376943  0.06856199       0.018
   0.15764354  0.13652331  0.06856199       0.018
   0.19705443  0.15927720  0.06856199       0.009
   0.07882177  0.13652331  0.06856199       0.009
   0.11823266  0.15927720  0.06856199       0.018
   0.15764354  0.18203109  0.06856199       0.018
   0.11823266  0.20478497  0.06856199       0.009
   0.15764354  0.22753886  0.06856199       0.009
   0.00000000  0.00000000  0.09141599       0.002
   0.03941089  0.02275389  0.09141599       0.009
   0.07882177  0.04550777  0.09141599       0.009
   0.11823266  0.06826166  0.09141599       0.009
   0.15764354  0.09101554  0.09141599       0.009
   0.19705443  0.11376943  0.09141599       0.009
   0.03941089  0.06826166  0.09141599       0.009
   0.07882177  0.09101554  0.09141599       0.018
   0.11823266  0.11376943  0.09141599       0.018
   0.15764354  0.13652331  0.09141599       0.018
   0.19705443  0.15927720  0.09141599       0.009
   0.07882177  0.13652331  0.09141599       0.009
   0.11823266  0.15927720  0.09141599       0.018
   0.15764354  0.18203109  0.09141599       0.018
   0.11823266  0.20478497  0.09141599       0.009
   0.15764354  0.22753886  0.09141599       0.009
   0.00000000  0.00000000  0.11426999       0.002
   0.03941089  0.02275389  0.11426999       0.009
   0.07882177  0.04550777  0.11426999       0.009
   0.11823266  0.06826166  0.11426999       0.009
   0.15764354  0.09101554  0.11426999       0.009
   0.19705443  0.11376943  0.11426999       0.009
   0.03941089  0.06826166  0.11426999       0.009
   0.07882177  0.09101554  0.11426999       0.018
   0.11823266  0.11376943  0.11426999       0.018
   0.15764354  0.13652331  0.11426999       0.018
   0.19705443  0.15927720  0.11426999       0.009
   0.07882177  0.13652331  0.11426999       0.009
   0.11823266  0.15927720  0.11426999       0.018
   0.15764354  0.18203109  0.11426999       0.018
   0.11823266  0.20478497  0.11426999       0.009
   0.15764354  0.22753886  0.11426999       0.009
 
 k-points in reciprocal lattice and weights: KPOINTS created by Atomic Simulation Env
   0.00000000  0.00000000  0.00000000       0.001
   0.09090909  0.00000000  0.00000000       0.005
   0.18181818 -0.00000000  0.00000000       0.005
   0.27272727  0.00000000  0.00000000       0.005
   0.36363636  0.00000000  0.00000000       0.005
   0.45454545 -0.00000000  0.00000000       0.005
   0.09090909  0.09090909  0.00000000       0.005
   0.18181818  0.09090909  0.00000000       0.009
   0.27272727  0.09090909  0.00000000       0.009
   0.36363636  0.09090909  0.00000000       0.009
   0.45454545  0.09090909  0.00000000       0.005
   0.18181818  0.18181818  0.00000000       0.005
   0.27272727  0.18181818  0.00000000       0.009
   0.36363636  0.18181818  0.00000000       0.009
   0.27272727  0.27272727  0.00000000       0.005
   0.36363636  0.27272727  0.00000000       0.005
   0.00000000  0.00000000  0.09090909       0.002
   0.09090909  0.00000000  0.09090909       0.009
   0.18181818 -0.00000000  0.09090909       0.009
   0.27272727  0.00000000  0.09090909       0.009
   0.36363636  0.00000000  0.09090909       0.009
   0.45454545 -0.00000000  0.09090909       0.009
   0.09090909  0.09090909  0.09090909       0.009
   0.18181818  0.09090909  0.09090909       0.018
   0.27272727  0.09090909  0.09090909       0.018
   0.36363636  0.09090909  0.09090909       0.018
   0.45454545  0.09090909  0.09090909       0.009
   0.18181818  0.18181818  0.09090909       0.009
   0.27272727  0.18181818  0.09090909       0.018
   0.36363636  0.18181818  0.09090909       0.018
   0.27272727  0.27272727  0.09090909       0.009
   0.36363636  0.27272727  0.09090909       0.009
   0.00000000  0.00000000  0.18181818       0.002
   0.09090909  0.00000000  0.18181818       0.009
   0.18181818 -0.00000000  0.18181818       0.009
   0.27272727  0.00000000  0.18181818       0.009
   0.36363636  0.00000000  0.18181818       0.009
   0.45454545 -0.00000000  0.18181818       0.009
   0.09090909  0.09090909  0.18181818       0.009
   0.18181818  0.09090909  0.18181818       0.018
   0.27272727  0.09090909  0.18181818       0.018
   0.36363636  0.09090909  0.18181818       0.018
   0.45454545  0.09090909  0.18181818       0.009
   0.18181818  0.18181818  0.18181818       0.009
   0.27272727  0.18181818  0.18181818       0.018
   0.36363636  0.18181818  0.18181818       0.018
   0.27272727  0.27272727  0.18181818       0.009
   0.36363636  0.27272727  0.18181818       0.009
   0.00000000  0.00000000  0.27272727       0.002
   0.09090909  0.00000000  0.27272727       0.009
   0.18181818 -0.00000000  0.27272727       0.009
   0.27272727  0.00000000  0.27272727       0.009
   0.36363636  0.00000000  0.27272727       0.009
   0.45454545 -0.00000000  0.27272727       0.009
   0.09090909  0.09090909  0.27272727       0.009
   0.18181818  0.09090909  0.27272727       0.018
   0.27272727  0.09090909  0.27272727       0.018
   0.36363636  0.09090909  0.27272727       0.018
   0.45454545  0.09090909  0.27272727       0.009
   0.18181818  0.18181818  0.27272727       0.009
   0.27272727  0.18181818  0.27272727       0.018
   0.36363636  0.18181818  0.27272727       0.018
   0.27272727  0.27272727  0.27272727       0.009
   0.36363636  0.27272727  0.27272727       0.009
   0.00000000  0.00000000  0.36363636       0.002
   0.09090909  0.00000000  0.36363636       0.009
   0.18181818 -0.00000000  0.36363636       0.009
   0.27272727  0.00000000  0.36363636       0.009
   0.36363636  0.00000000  0.36363636       0.009
   0.45454545 -0.00000000  0.36363636       0.009
   0.09090909  0.09090909  0.36363636       0.009
   0.18181818  0.09090909  0.36363636       0.018
   0.27272727  0.09090909  0.36363636       0.018
   0.36363636  0.09090909  0.36363636       0.018
   0.45454545  0.09090909  0.36363636       0.009
   0.18181818  0.18181818  0.36363636       0.009
   0.27272727  0.18181818  0.36363636       0.018
   0.36363636  0.18181818  0.36363636       0.018
   0.27272727  0.27272727  0.36363636       0.009
   0.36363636  0.27272727  0.36363636       0.009
   0.00000000  0.00000000  0.45454545       0.002
   0.09090909  0.00000000  0.45454545       0.009
   0.18181818 -0.00000000  0.45454545       0.009
   0.27272727  0.00000000  0.45454545       0.009
   0.36363636  0.00000000  0.45454545       0.009
   0.45454545 -0.00000000  0.45454545       0.009
   0.09090909  0.09090909  0.45454545       0.009
   0.18181818  0.09090909  0.45454545       0.018
   0.27272727  0.09090909  0.45454545       0.018
   0.36363636  0.09090909  0.45454545       0.018
   0.45454545  0.09090909  0.45454545       0.009
   0.18181818  0.18181818  0.45454545       0.009
   0.27272727  0.18181818  0.45454545       0.018
   0.36363636  0.18181818  0.45454545       0.018
   0.27272727  0.27272727  0.45454545       0.009
   0.36363636  0.27272727  0.45454545       0.009
 
 position of ions in fractional coordinates (direct lattice) 
   0.00000000  0.00000000  0.00000000
   0.33333333  0.66666667  0.50000000
 
 position of ions in cartesian coordinates  (Angst):
   0.00000000  0.00000000  0.00000000
   0.00000000  1.33177387  1.98891000
 


--------------------------------------------------------------------------------------------------------


 k-point   1 :   0.0000 0.0000 0.0000  plane waves:     209
 k-point   2 :   0.0909 0.0000 0.0000  plane waves:     197
 k-point   3 :   0.1818-0.0000 0.0000  plane waves:     193
 k-point   4 :   0.2727 0.0000 0.0000  plane waves:     191
 k-point   5 :   0.3636 0.0000 0.0000  plane waves:     192
 k-point   6 :   0.4545-0.0000 0.0000  plane waves:     200
 k-point   7 :   0.0909 0.0909 0.0000  plane waves:     191
 k-point   8 :   0.1818 0.0909 0.0000  plane waves:     192
 k-point   9 :   0.2727 0.0909 0.0000  plane waves:     195
 k-point  10 :   0.3636 0.0909 0.0000  plane waves:     197
 k-point  11 :   0.4545 0.0909 0.0000  plane waves:     202
 k-point  12 :   0.1818 0.1818 0.0000  plane waves:     189
 k-point  13 :   0.2727 0.1818 0.0000  plane waves:     197
 k-point  14 :   0.3636 0.1818 0.0000  plane waves:     199
 k-point  15 :   0.2727 0.2727 0.0000  plane waves:     199
 k-point  16 :   0.3636 0.2727 0.0000  plane waves:     197
 k-point  17 :   0.0000 0.0000 0.0909  plane waves:     203
 k-point  18 :   0.0909 0.0000 0.0909  plane waves:     192
 k-point  19 :   0.1818-0.0000 0.0909  plane waves:     196
 k-point  20 :   0.2727 0.0000 0.0909  plane waves:     196
 k-point  21 :   0.3636 0.0000 0.0909  plane waves:     194
 k-point  22 :   0.4545-0.0000 0.0909  plane waves:     197
 k-point  23 :   0.0909 0.0909 0.0909  plane waves:     194
 k-point  24 :   0.1818 0.0909 0.0909  plane waves:     192
 k-point  25 :   0.2727 0.0909 0.0909  plane waves:     195
 k-point  26 :   0.3636 0.0909 0.0909  plane waves:     197
 k-point  27 :   0.4545 0.0909 0.0909  plane waves:     201
 k-point  28 :   0.1818 0.1818 0.0909  plane waves:     189
 k-point  29 :   0.2727 0.1818 0.0909  plane waves:     195
 k-point  30 :   0.3636 0.1818 0.0909  plane waves:     200
 k-point  31 :   0.2727 0.2727 0.0909  plane waves:     199
 k-point  32 :   0.3636 0.2727 0.0909  plane waves:     200
 k-point  33 :   0.0000 0.0000 0.1818  plane waves:     203
 k-point  34 :   0.0909 0.0000 0.1818  plane waves:     192
 k-point  35 :   0.1818-0.0000 0.1818  plane waves:     194
 k-point  36 :   0.2727 0.0000 0.1818  plane waves:     192
 k-point  37 :   0.3636 0.0000 0.1818  plane waves:     194
 k-point  38 :   0.4545-0.0000 0.1818  plane waves:     193
 k-point  39 :   0.0909 0.0909 0.1818  plane waves:     192
 k-point  40 :   0.1818 0.0909 0.1818  plane waves:     193
 k-point  41 :   0.2727 0.0909 0.1818  plane waves:     197
 k-point  42 :   0.3636 0.0909 0.1818  plane waves:     197
 k-point  43 :   0.4545 0.0909 0.1818  plane waves:     195
 k-point  44 :   0.1818 0.1818 0.1818  plane waves:     193
 k-point  45 :   0.2727 0.1818 0.1818  plane waves:     196
 k-point  46 :   0.3636 0.1818 0.1818  plane waves:     201
 k-point  47 :   0.2727 0.2727 0.1818  plane waves:     199
 k-point  48 :   0.3636 0.2727 0.1818  plane waves:     202
 k-point  49 :   0.0000 0.0000 0.2727  plane waves:     197
 k-point  50 :   0.0909 0.0000 0.2727  plane waves:     194
 k-point  51 :   0.1818-0.0000 0.2727  plane waves:     193
 k-point  52 :   0.2727 0.0000 0.2727  plane waves:     193
 k-point  53 :   0.3636 0.0000 0.2727  plane waves:     192
 k-point  54 :   0.4545-0.0000 0.2727  plane waves:     195
 k-point  55 :   0.0909 0.0909 0.2727  plane waves:     190
 k-point  56 :   0.1818 0.0909 0.2727  plane waves:     193
 k-point  57 :   0.2727 0.0909 0.2727  plane waves:     194
 k-point  58 :   0.3636 0.0909 0.2727  plane waves:     196
 k-point  59 :   0.4545 0.0909 0.2727  plane waves:     196
 k-point  60 :   0.1818 0.1818 0.2727  plane waves:     193
 k-point  61 :   0.2727 0.1818 0.2727  plane waves:     194
 k-point  62 :   0.3636 0.1818 0.2727  plane waves:     200
 k-point  63 :   0.2727 0.2727 0.2727  plane waves:     197
 k-point  64 :   0.3636 0.2727 0.2727  plane waves:     202
 k-point  65 :   0.0000 0.0000 0.3636  plane waves:     191
 k-point  66 :   0.0909 0.0000 0.3636  plane waves:     192
 k-point  67 :   0.1818-0.0000 0.3636  plane waves:     191
 k-point  68 :   0.2727 0.0000 0.3636  plane waves:     191
 k-point  69 :   0.3636 0.0000 0.3636  plane waves:     192
 k-point  70 :   0.4545-0.0000 0.3636  plane waves:     196
 k-point  71 :   0.0909 0.0909 0.3636  plane waves:     194
 k-point  72 :   0.1818 0.0909 0.3636  plane waves:     191
 k-point  73 :   0.2727 0.0909 0.3636  plane waves:     195
 k-point  74 :   0.3636 0.0909 0.3636  plane waves:     196
 k-point  75 :   0.4545 0.0909 0.3636  plane waves:     194
 k-point  76 :   0.1818 0.1818 0.3636  plane waves:     193
 k-point  77 :   0.2727 0.1818 0.3636  plane waves:     200
 k-point  78 :   0.3636 0.1818 0.3636  plane waves:     194
 k-point  79 :   0.2727 0.2727 0.3636  plane waves:     198
 k-point  80 :   0.3636 0.2727 0.3636  plane waves:     198
 k-point  81 :   0.0000 0.0000 0.4545  plane waves:     190
 k-point  82 :   0.0909 0.0000 0.4545  plane waves:     191
 k-point  83 :   0.1818-0.0000 0.4545  plane waves:     188
 k-point  84 :   0.2727 0.0000 0.4545  plane waves:     194
 k-point  85 :   0.3636 0.0000 0.4545  plane waves:     198
 k-point  86 :   0.4545-0.0000 0.4545  plane waves:     195
 k-point  87 :   0.0909 0.0909 0.4545  plane waves:     190
 k-point  88 :   0.1818 0.0909 0.4545  plane waves:     191
 k-point  89 :   0.2727 0.0909 0.4545  plane waves:     195
 k-point  90 :   0.3636 0.0909 0.4545  plane waves:     195
 k-point  91 :   0.4545 0.0909 0.4545  plane waves:     196
 k-point  92 :   0.1818 0.1818 0.4545  plane waves:     192
 k-point  93 :   0.2727 0.1818 0.4545  plane waves:     196
 k-point  94 :   0.3636 0.1818 0.4545  plane waves:     195
 k-point  95 :   0.2727 0.2727 0.4545  plane waves:     202
 k-point  96 :   0.3636 0.2727 0.4545  plane waves:     198

 maximum number of plane-waves:       209
 maximum index in each direction: 
   IXMAX=    3   IYMAX=    3   IZMAX=    5
   IXMIN=   -3   IYMIN=   -3   IZMIN=   -5


 total amount of memory used by VASP MPI-rank0    48699. kBytes
=======================================================================

   base      :      30000. kBytes
   nonl-proj :       2895. kBytes
   grid      :        721. kBytes
   one-center:         31. kBytes
   wavefun   :      15052. kBytes
 
     INWAV:  cpu time    0.0000: real time    0.0000
 Broyden mixing: mesh for mixing (old mesh)
   NGX =  7   NGY =  7   NGZ = 11
  (NGX  = 20   NGY  = 20   NGZ  = 32)
  gives a total of    539 points

 initial charge density was supplied:
 charge density of overlapping atoms calculated
 number of electron      16.0000000 magnetization 
 keeping initial charge density in first step


--------------------------------------------------------------------------------------------------------


 Maximum index for augmentation-charges         3024 (set IRDMAX)


--------------------------------------------------------------------------------------------------------


 First call to EWALD:  gamma=   0.672
 Maximum number of real-space cells 3x 3x 2
 Maximum number of reciprocal cells 2x 2x 4

    FEWALD:  cpu time    0.0008: real time    0.0008


--------------------------------------- Iteration      1(   1)  ---------------------------------------


    POTLOK:  cpu time    0.0030: real time    0.0030
    SETDIJ:  cpu time    0.0022: real time    0.0022
     EDDAV:  cpu time    0.7447: real time    0.7632
       DOS:  cpu time    0.0056: real time    0.0056
    --------------------------------------------
      LOOP:  cpu time    0.7555: real time    0.7741

 eigenvalue-minimisations  :  9448
 total energy-change (2. order) : 0.5966719E+02  (-0.2491023E+03)
 number of electron      16.0000000 magnetization 
 augmentation part       16.0000000 magnetization 

 Free energy of the ion-electron system (eV)
  ---------------------------------------------------
  alpha Z        PSCENC =       150.82266919
  Ewald energy   TEWEN  =     -1271.35553251
  -Hartree energ DENC   =      -191.57127936
  -exchange      EXHF   =         0.00000000
  -V(xc)+E(xc)   XCENC  =         9.18800129
  PAW double counting   =      1109.69170683    -1125.09647265
  entropy T*S    EENTRO =        -0.00139466
  eigenvalues    EBANDS =       189.41457943
  atomic energy  EATOM  =      1188.57490811
  Solvation  Ediel_sol  =         0.00000000
  ---------------------------------------------------
  free energy    TOTEN  =        59.66718567 eV

  energy without entropy =       59.66858032  energy(sigma->0) =       59.66765055


--------------------------------------------------------------------------------------------------------




--------------------------------------- Iteration      1(   2)  ---------------------------------------


     EDDAV:  cpu time    0.6316: real time    0.6316
       DOS:  cpu time    0.0059: real time    0.0059
    --------------------------------------------
      LOOP:  cpu time    0.6375: real time    0.6375

 eigenvalue-minimisations  :  7904
 total energy-change (2. order) :-0.7435094E+02  (-0.6325240E+02)
 number of electron      16.0000000 magnetization 
 augmentation part       16.0000000 magnetization 

 Free energy of the ion-electron system (eV)
  ---------------------------------------------------
  alpha Z        PSCENC =       150.82266919
  Ewald energy   TEWEN  =     -1271.35553251
  -Hartree energ DENC   =      -191.57127936
  -exchange      EXHF   =         0.00000000
  -V(xc)+E(xc)   XCENC  =         9.18800129
  PAW double counting   =      1109.69170683    -1125.09647265
  entropy T*S    EENTRO =        -0.00022746
  eigenvalues    EBANDS =       115.06247447
  atomic energy  EATOM  =      1188.57490811
  Solvation  Ediel_sol  =         0.00000000
  ---------------------------------------------------
  free energy    TOTEN  =       -14.68375210 eV

  energy without entropy =      -14.68352464  energy(sigma->0) =      -14.68367628


--------------------------------------------------------------------------------------------------------




--------------------------------------- Iteration      1(   3)  ---------------------------------------


     EDDAV:  cpu time    0.7313: real time    0.7313
       DOS:  cpu time    0.0064: real time    0.0064
    --------------------------------------------
      LOOP:  cpu time    0.7377: real time    0.7377

 eigenvalue-minimisations  :  9616
 total energy-change (2. order) :-0.4116639E+01  (-0.3946333E+01)
 number of electron      16.0000000 magnetization 
 augmentation part       16.0000000 magnetization 

 Free energy of the ion-electron system (eV)
  ---------------------------------------------------
  alpha Z        PSCENC =       150.82266919
  Ewald energy   TEWEN  =     -1271.35553251
  -Hartree energ DENC   =      -191.57127936
  -exchange      EXHF   =         0.00000000
  -V(xc)+E(xc)   XCENC  =         9.18800129
  PAW double counting   =      1109.69170683    -1125.09647265
  entropy T*S    EENTRO =        -0.00004855
  eigenvalues    EBANDS =       110.94565671
  atomic energy  EATOM  =      1188.57490811
  Solvation  Ediel_sol  =         0.00000000
  ---------------------------------------------------
  free energy    TOTEN  =       -18.80039095 eV

  energy without entropy =      -18.80034240  energy(sigma->0) =      -18.80037477


--------------------------------------------------------------------------------------------------------




--------------------------------------- Iteration      1(   4)  ---------------------------------------


     EDDAV:  cpu time    0.6887: real time    0.6888
       DOS:  cpu time    0.0063: real time    0.0063
    --------------------------------------------
      LOOP:  cpu time    0.6951: real time    0.6951

 eigenvalue-minimisations  :  8992
 total energy-change (2. order) :-0.1489669E-01  (-0.1488952E-01)
 number of electron      16.0000000 magnetization 
 augmentation part       16.0000000 magnetization 

 Free energy of the ion-electron system (eV)
  ---------------------------------------------------
  alpha Z        PSCENC =       150.82266919
  Ewald energy   TEWEN  =     -1271.35553251
  -Hartree energ DENC   =      -191.57127936
  -exchange      EXHF   =         0.00000000
  -V(xc)+E(xc)   XCENC  =         9.18800129
  PAW double counting   =      1109.69170683    -1125.09647265
  entropy T*S    EENTRO =        -0.00004460
  eigenvalues    EBANDS =       110.93075608
  atomic energy  EATOM  =      1188.57490811
  Solvation  Ediel_sol  =         0.00000000
  ---------------------------------------------------
  free energy    TOTEN  =       -18.81528764 eV

  energy without entropy =      -18.81524303  energy(sigma->0) =      -18.81527277


--------------------------------------------------------------------------------------------------------




--------------------------------------- Iteration      1(   5)  ---------------------------------------


     EDDAV:  cpu time    0.7016: real time    0.7016
       DOS:  cpu time    0.0063: real time    0.0063
    CHARGE:  cpu time    0.0177: real time    0.0177
    MIXING:  cpu time    0.0001: real time    0.0001
    --------------------------------------------
      LOOP:  cpu time    0.7258: real time    0.7258

 eigenvalue-minimisations  :  9288
 total energy-change (2. order) :-0.1041468E-04  (-0.1041487E-04)
 number of electron      16.0000156 magnetization 
 augmentation part        7.1592522 magnetization 

 Broyden mixing:
  rms(total) = 0.19070E+01    rms(broyden)= 0.19070E+01
  rms(prec ) = 0.30098E+01
  weight for this iteration     100.00

 Free energy of the ion-electron system (eV)
  ---------------------------------------------------
  alpha Z        PSCENC =       150.82266919
  Ewald energy   TEWEN  =     -1271.35553251
  -Hartree energ DENC   =      -191.57127936
  -exchange      EXHF   =         0.00000000
  -V(xc)+E(xc)   XCENC  =         9.18800129
  PAW double counting   =      1109.69170683    -1125.09647265
  entropy T*S    EENTRO =        -0.00004461
  eigenvalues    EBANDS =       110.93074566
  atomic energy  EATOM  =      1188.57490811
  Solvation  Ediel_sol  =         0.00000000
  ---------------------------------------------------
  free energy    TOTEN  =       -18.81529805 eV

  energy without entropy =      -18.81525345  energy(sigma->0) =      -18.81528318


--------------------------------------------------------------------------------------------------------




--------------------------------------- Iteration      1(   6)  ---------------------------------------


    POTLOK:  cpu time    0.0029: real time    0.0029
    SETDIJ:  cpu time    0.0021: real time    0.0021
     EDDAV:  cpu time    0.8348: real time    0.8349
       DOS:  cpu time    0.0066: real time    0.0067
    CHARGE:  cpu time    0.0171: real time    0.0171
    MIXING:  cpu time    0.0002: real time    0.0002
    --------------------------------------------
      LOOP:  cpu time    0.8638: real time    0.8639

 eigenvalue-minimisations  : 11256
 total energy-change (2. order) : 0.2711832E+01  (-0.1425346E+00)
 number of electron      16.0000188 magnetization 
 augmentation part        8.3523928 magnetization 

 Broyden mixing:
  rms(total) = 0.14581E+00    rms(broyden)= 0.14572E+00
  rms(prec ) = 0.20972E+00
  weight for this iteration     100.00

 eigenvalues of (default mixing * dielectric matrix)
  average eigenvalue GAMMA=   1.0031
  1.0031

 Free energy of the ion-electron system (eV)
  ---------------------------------------------------
  alpha Z        PSCENC =       150.82266919
  Ewald energy   TEWEN  =     -1271.35553251
  -Hartree energ DENC   =      -160.21136646
  -exchange      EXHF   =         0.00000000
  -V(xc)+E(xc)   XCENC  =         7.64627981
  PAW double counting   =      1320.51682826    -1332.50202509
  entropy T*S    EENTRO =         0.00079049
  eigenvalues    EBANDS =        80.40398244
  atomic energy  EATOM  =      1188.57490811
  Solvation  Ediel_sol  =         0.00000000
  ---------------------------------------------------
  free energy    TOTEN  =       -16.10346576 eV

  energy without entropy =      -16.10425624  energy(sigma->0) =      -16.10372925


--------------------------------------------------------------------------------------------------------




--------------------------------------- Iteration      1(   7)  ---------------------------------------


    POTLOK:  cpu time    0.0030: real time    0.0030
    SETDIJ:  cpu time    0.0021: real time    0.0021
     EDDAV:  cpu time    0.7403: real time    0.7403
       DOS:  cpu time    0.0062: real time    0.0062
    CHARGE:  cpu time    0.0172: real time    0.0172
    MIXING:  cpu time    0.0002: real time    0.0002
    --------------------------------------------
      LOOP:  cpu time    0.7689: real time    0.7689

 eigenvalue-minimisations  :  9864
 total energy-change (2. order) : 0.1260381E+00  (-0.6774872E-02)
 number of electron      16.0000183 magnetization 
 augmentation part        8.1734639 magnetization 

 Broyden mixing:
  rms(total) = 0.13619E+00    rms(broyden)= 0.13619E+00
  rms(prec ) = 0.21190E+00
  weight for this iteration     100.00

 eigenvalues of (default mixing * dielectric matrix)
  average eigenvalue GAMMA=   1.1167
  0.8102  1.4232

 Free energy of the ion-electron system (eV)
  ---------------------------------------------------
  alpha Z        PSCENC =       150.82266919
  Ewald energy   TEWEN  =     -1271.35553251
  -Hartree energ DENC   =      -161.85606184
  -exchange      EXHF   =         0.00000000
  -V(xc)+E(xc)   XCENC  =         7.75514056
  PAW double counting   =      1424.17638939    -1439.56062971
  entropy T*S    EENTRO =         0.00071167
  eigenvalues    EBANDS =        85.46497750
  atomic energy  EATOM  =      1188.57490811
  Solvation  Ediel_sol  =         0.00000000
  ---------------------------------------------------
  free energy    TOTEN  =       -15.97742764 eV

  energy without entropy =      -15.97813930  energy(sigma->0) =      -15.97766486


--------------------------------------------------------------------------------------------------------




--------------------------------------- Iteration      1(   8)  ---------------------------------------


    POTLOK:  cpu time    0.0029: real time    0.0029
    SETDIJ:  cpu time    0.0021: real time    0.0021
     EDDAV:  cpu time    0.7670: real time    0.7671
       DOS:  cpu time    0.0064: real time    0.0064
    CHARGE:  cpu time    0.0172: real time    0.0172
    MIXING:  cpu time    0.0002: real time    0.0002
    --------------------------------------------
      LOOP:  cpu time    0.7959: real time    0.7959

 eigenvalue-minimisations  : 10264
 total energy-change (2. order) : 0.3369913E-01  (-0.2213829E-03)
 number of electron      16.0000184 magnetization 
 augmentation part        8.1969510 magnetization 

 Broyden mixing:
  rms(total) = 0.55468E-01    rms(broyden)= 0.55468E-01
  rms(prec ) = 0.83439E-01
  weight for this iteration     100.00

 eigenvalues of (default mixing * dielectric matrix)
  average eigenvalue GAMMA=   1.5234
  2.6662  1.0586  0.8453

 Free energy of the ion-electron system (eV)
  ---------------------------------------------------
  alpha Z        PSCENC =       150.82266919
  Ewald energy   TEWEN  =     -1271.35553251
  -Hartree energ DENC   =      -159.55401520
  -exchange      EXHF   =         0.00000000
  -V(xc)+E(xc)   XCENC  =         7.66290634
  PAW double counting   =      1521.00660784    -1538.18376217
  entropy T*S    EENTRO =         0.00071908
  eigenvalues    EBANDS =        85.08177080
  atomic energy  EATOM  =      1188.57490811
  Solvation  Ediel_sol  =         0.00000000
  ---------------------------------------------------
  free energy    TOTEN  =       -15.94372851 eV

  energy without entropy =      -15.94444759  energy(sigma->0) =      -15.94396820


--------------------------------------------------------------------------------------------------------




--------------------------------------- Iteration      1(   9)  ---------------------------------------


    POTLOK:  cpu time    0.0030: real time    0.0030
    SETDIJ:  cpu time    0.0021: real time    0.0021
     EDDAV:  cpu time    0.7822: real time    0.7822
       DOS:  cpu time    0.0065: real time    0.0065
    CHARGE:  cpu time    0.0173: real time    0.0184
    MIXING:  cpu time    0.0002: real time    0.0002
    --------------------------------------------
      LOOP:  cpu time    0.8112: real time    0.8124

 eigenvalue-minimisations  : 10552
 total energy-change (2. order) : 0.8230515E-02  (-0.8195295E-04)
 number of electron      16.0000184 magnetization 
 augmentation part        8.2073724 magnetization 

 Broyden mixing:
  rms(total) = 0.62079E-02    rms(broyden)= 0.62072E-02
  rms(prec ) = 0.83732E-02
  weight for this iteration     100.00

 eigenvalues of (default mixing * dielectric matrix)
  average eigenvalue GAMMA=   1.6196
  2.6718  0.8499  0.9956  1.9612

 Free energy of the ion-electron system (eV)
  ---------------------------------------------------
  alpha Z        PSCENC =       150.82266919
  Ewald energy   TEWEN  =     -1271.35553251
  -Hartree energ DENC   =      -157.82379380
  -exchange      EXHF   =         0.00000000
  -V(xc)+E(xc)   XCENC  =         7.59744844
  PAW double counting   =      1611.33928824    -1630.10227835
  entropy T*S    EENTRO =         0.00071615
  eigenvalues    EBANDS =        85.01107654
  atomic energy  EATOM  =      1188.57490811
  Solvation  Ediel_sol  =         0.00000000
  ---------------------------------------------------
  free energy    TOTEN  =       -15.93549799 eV

  energy without entropy =      -15.93621415  energy(sigma->0) =      -15.93573671


--------------------------------------------------------------------------------------------------------




--------------------------------------- Iteration      1(  10)  ---------------------------------------


    POTLOK:  cpu time    0.0030: real time    0.0030
    SETDIJ:  cpu time    0.0021: real time    0.0021
     EDDAV:  cpu time    0.6543: real time    0.6543
       DOS:  cpu time    0.0064: real time    0.0064
    CHARGE:  cpu time    0.0172: real time    0.0172
    MIXING:  cpu time    0.0002: real time    0.0002
    --------------------------------------------
      LOOP:  cpu time    0.6832: real time    0.6832

 eigenvalue-minimisations  :  8528
 total energy-change (2. order) : 0.4555338E-06  (-0.2653375E-05)
 number of electron      16.0000184 magnetization 
 augmentation part        8.2070696 magnetization 

 Broyden mixing:
  rms(total) = 0.21049E-02    rms(broyden)= 0.21043E-02
  rms(prec ) = 0.31478E-02
  weight for this iteration     100.00

 eigenvalues of (default mixing * dielectric matrix)
  average eigenvalue GAMMA=   1.6497
  2.6000  2.5012  0.8489  1.0020  1.2965

 Free energy of the ion-electron system (eV)
  ---------------------------------------------------
  alpha Z        PSCENC =       150.82266919
  Ewald energy   TEWEN  =     -1271.35553251
  -Hartree energ DENC   =      -157.91837061
  -exchange      EXHF   =         0.00000000
  -V(xc)+E(xc)   XCENC  =         7.60239538
  PAW double counting   =      1611.92276666    -1630.59004907
  entropy T*S    EENTRO =         0.00071277
  eigenvalues    EBANDS =        85.00500254
  atomic energy  EATOM  =      1188.57490811
  Solvation  Ediel_sol  =         0.00000000
  ---------------------------------------------------
  free energy    TOTEN  =       -15.93549754 eV

  energy without entropy =      -15.93621031  energy(sigma->0) =      -15.93573513


--------------------------------------------------------------------------------------------------------




--------------------------------------- Iteration      1(  11)  ---------------------------------------


    POTLOK:  cpu time    0.0030: real time    0.0030
    SETDIJ:  cpu time    0.0021: real time    0.0021
     EDDAV:  cpu time    0.6396: real time    0.6397
       DOS:  cpu time    0.0065: real time    0.0065
    CHARGE:  cpu time    0.0174: real time    0.0174
    MIXING:  cpu time    0.0002: real time    0.0002
    --------------------------------------------
      LOOP:  cpu time    0.6689: real time    0.6689

 eigenvalue-minimisations  :  8056
 total energy-change (2. order) : 0.1378634E-04  (-0.1815185E-07)
 number of electron      16.0000184 magnetization 
 augmentation part        8.2067965 magnetization 

 Broyden mixing:
  rms(total) = 0.15485E-03    rms(broyden)= 0.15479E-03
  rms(prec ) = 0.25287E-03
  weight for this iteration     100.00

 eigenvalues of (default mixing * dielectric matrix)
  average eigenvalue GAMMA=   1.5773
  2.5812  2.5812  0.8488  1.0109  1.0109  1.4311

 Free energy of the ion-electron system (eV)
  ---------------------------------------------------
  alpha Z        PSCENC =       150.82266919
  Ewald energy   TEWEN  =     -1271.35553251
  -Hartree energ DENC   =      -157.97964047
  -exchange      EXHF   =         0.00000000
  -V(xc)+E(xc)   XCENC  =         7.60523360
  PAW double counting   =      1611.08550505    -1629.69332793
  entropy T*S    EENTRO =         0.00071292
  eigenvalues    EBANDS =        85.00398830
  atomic energy  EATOM  =      1188.57490811
  Solvation  Ediel_sol  =         0.00000000
  ---------------------------------------------------
  free energy    TOTEN  =       -15.93548375 eV

  energy without entropy =      -15.93619667  energy(sigma->0) =      -15.93572139


--------------------------------------------------------------------------------------------------------




--------------------------------------- Iteration      1(  12)  ---------------------------------------


    POTLOK:  cpu time    0.0030: real time    0.0030
    SETDIJ:  cpu time    0.0021: real time    0.0021
     EDDAV:  cpu time    0.5173: real time    0.5173
       DOS:  cpu time    0.0064: real time    0.0064
    --------------------------------------------
      LOOP:  cpu time    0.5288: real time    0.5288

 eigenvalue-minimisations  :  5944
 total energy-change (2. order) : 0.9691162E-06  (-0.7406903E-08)
 number of electron      16.0000184 magnetization 
 augmentation part        8.2067965 magnetization 

 Free energy of the ion-electron system (eV)
  ---------------------------------------------------
  alpha Z        PSCENC =       150.82266919
  Ewald energy   TEWEN  =     -1271.35553251
  -Hartree energ DENC   =      -157.98611522
  -exchange      EXHF   =         0.00000000
  -V(xc)+E(xc)   XCENC  =         7.60552244
  PAW double counting   =      1611.05213449    -1629.65371577
  entropy T*S    EENTRO =         0.00071314
  eigenvalues    EBANDS =        85.00393335
  atomic energy  EATOM  =      1188.57490811
  Solvation  Ediel_sol  =         0.00000000
  ---------------------------------------------------
  free energy    TOTEN  =       -15.93548278 eV

  energy without entropy =      -15.93619592  energy(sigma->0) =      -15.93572049


--------------------------------------------------------------------------------------------------------




 average (electrostatic) potential at core
  the test charge radii are     1.0103
  (the norm of the test charge is              1.0000)
       1 -41.4896       2 -41.4897
 
 
 
 E-fermi :   8.1441     XC(G=0): -14.4237     alpha+bet :-16.9129

 Fermi energy:         8.1440717606

 k-point     1 :       0.0000    0.0000    0.0000
  band No.  band energies     occupation 
      1      -1.3518      2.00000
      2       2.5619      2.00000
      3       5.7575      2.00000
      4       6.3124      2.00000
      5       6.3125      2.00000
      6       6.7087      2.00000
      7       6.7088      2.00000
      8       7.6291      2.00165
      9       7.6756      2.00455
     10       7.6756      2.00455
     11       9.0197     -0.00000
     12       9.0197     -0.00000
     13      16.8101      0.00000
     14      32.1936      0.00000
     15      33.4231      0.00000
     16      35.6007      0.00000
     17      38.4323      0.00000
     18      38.4324      0.00000
     19      39.1615      0.00000
     20      39.1616      0.00000
     21      41.1922      0.00000
     22      41.8762      0.00000
     23      41.8762      0.00000
     24      42.9962      0.00000
     25      46.1442      0.00000
     26      46.1442      0.00000
     27      47.6419      0.00000
     28      50.4112      0.00000
     29      50.4116      0.00000
     30      52.3615      0.00000
     31      52.3617      0.00000
     32      55.5305      0.00000
     33      63.4945      0.00000
     34      64.0171      0.00000
     35      64.3399      0.00000
     36      64.3408      0.00000
     37      65.7076      0.00000
     38      67.5932      0.00000
     39      67.5943      0.00000
     40      70.2569      0.00000

 k-point     2 :       0.0909    0.0000    0.0000
  band No.  band energies     occupation 
      1      -0.9974      2.00000
      2       2.8234      2.00000
      3       5.7046      2.00000
      4       6.3030      2.00000
      5       6.5313      2.00000
      6       6.5676      2.00000
      7       6.5868      2.00000
      8       6.9106      2.00000
      9       7.5325      2.00013
     10       7.5428      2.00018
     11       9.0652     -0.00000
     12      10.3454     -0.00000
     13      16.8287      0.00000
     14      31.1449      0.00000
     15      33.7341      0.00000
     16      34.0360      0.00000
     17      35.5009      0.00000
     18      37.7115      0.00000
     19      37.7418      0.00000
     20      41.0271      0.00000
     21      41.4030      0.00000
     22      42.2545      0.00000
     23      42.9778      0.00000
     24      43.0389      0.00000
     25      47.2562      0.00000
     26      47.5086      0.00000
     27      47.8463      0.00000
     28      48.1433      0.00000
     29      51.6276      0.00000
     30      53.9602      0.00000
     31      54.8233      0.00000
     32      57.1909      0.00000
     33      62.0966      0.00000
     34      63.5192      0.00000
     35      63.7150      0.00000
     36      64.3514      0.00000
     37      64.5673      0.00000
     38      68.1744      0.00000
     39      69.8127      0.00000
     40      70.2428      0.00000

 k-point     3 :       0.1818   -0.0000    0.0000
  band No.  band energies     occupation 
      1      -0.0018      2.00000
      2       3.4287      2.00000
      3       5.2981      2.00000
      4       5.3992      2.00000
      5       6.1326      2.00000
      6       6.7961      2.00000
      7       7.1395      2.00000
      8       7.1631      2.00000
      9       7.2304      2.00000
     10       7.4661      2.00002
     11       9.1454     -0.00000
     12      12.3841     -0.00000
     13      16.9026      0.00000
     14      27.5542      0.00000
     15      32.4927      0.00000
     16      32.7835      0.00000
     17      33.2800      0.00000
     18      34.5350      0.00000
     19      38.6434      0.00000
     20      40.2139      0.00000
     21      40.6628      0.00000
     22      40.7949      0.00000
     23      43.6041      0.00000
     24      45.0768      0.00000
     25      47.4406      0.00000
     26      48.2876      0.00000
     27      49.8924      0.00000
     28      52.2934      0.00000
     29      54.9142      0.00000
     30      56.8726      0.00000
     31      57.5339      0.00000
     32      60.0266      0.00000
     33      60.5401      0.00000
     34      61.8783      0.00000
     35      61.9359      0.00000
     36      63.0908      0.00000
     37      65.5731      0.00000
     38      68.9151      0.00000
     39      70.2802      0.00000
     40      71.0974      0.00000

 k-point     4 :       0.2727    0.0000    0.0000
  band No.  band energies     occupation 
      1       1.3836      2.00000
      2       3.6893      2.00000
      3       4.3048      2.00000
      4       5.3191      2.00000
      5       5.9607      2.00000
      6       6.6991      2.00000
      7       6.8762      2.00000
      8       7.6516      2.00274
      9       8.0053      1.91537
     10       8.2447      0.25659
     11       9.1985     -0.00000
     12      14.6426      0.00000
     13      17.0628      0.00000
     14      23.5297      0.00000
     15      29.6083      0.00000
     16      29.9085      0.00000
     17      31.3168      0.00000
     18      34.1838      0.00000
     19      37.1044      0.00000
     20      40.0917      0.00000
     21      40.8450      0.00000
     22      40.9051      0.00000
     23      41.2590      0.00000
     24      45.3514      0.00000
     25      50.9089      0.00000
     26      52.6053      0.00000
     27      53.4589      0.00000
     28      55.2888      0.00000
     29      56.6516      0.00000
     30      57.3854      0.00000
     31      59.1120      0.00000
     32      60.7601      0.00000
     33      61.1491      0.00000
     34      62.0088      0.00000
     35      62.5742      0.00000
     36      64.8821      0.00000
     37      65.5747      0.00000
     38      69.4807      0.00000
     39      70.0882      0.00000
     40      70.8022      0.00000

 k-point     5 :       0.3636    0.0000    0.0000
  band No.  band energies     occupation 
      1       2.5556      2.00000
      2       3.3903      2.00000
      3       3.6324      2.00000
      4       5.5799      2.00000
      5       6.2910      2.00000
      6       6.3533      2.00000
      7       6.5851      2.00000
      8       8.8795     -0.00000
      9       9.0221     -0.00000
     10       9.0351     -0.00000
     11       9.2191     -0.00000
     12      16.7252      0.00000
     13      17.0199      0.00000
     14      20.7280      0.00000
     15      26.2969      0.00000
     16      27.9217      0.00000
     17      28.6328      0.00000
     18      33.1972      0.00000
     19      35.8744      0.00000
     20      39.1317      0.00000
     21      39.7478      0.00000
     22      41.9290      0.00000
     23      42.9966      0.00000
     24      45.6987      0.00000
     25      53.6438      0.00000
     26      54.4506      0.00000
     27      54.5412      0.00000
     28      57.7663      0.00000
     29      58.2303      0.00000
     30      58.7292      0.00000
     31      60.9917      0.00000
     32      61.5681      0.00000
     33      62.2102      0.00000
     34      62.5342      0.00000
     35      63.8651      0.00000
     36      65.5736      0.00000
     37      69.5263      0.00000
     38      69.5460      0.00000
     39      69.7865      0.00000
     40      69.8660      0.00000

 k-point     6 :       0.4545   -0.0000    0.0000
  band No.  band energies     occupation 
      1       2.9148      2.00000
      2       3.1967      2.00000
      3       3.2942      2.00000
      4       6.0554      2.00000
      5       6.1730      2.00000
      6       6.4211      2.00000
      7       6.6263      2.00000
      8       9.2206     -0.00000
      9       9.4202     -0.00000
     10       9.5711     -0.00000
     11      10.8564     -0.00000
     12      14.5875      0.00000
     13      19.2397      0.00000
     14      20.8189      0.00000
     15      23.6250      0.00000
     16      25.9912      0.00000
     17      26.8017      0.00000
     18      32.5184      0.00000
     19      35.4774      0.00000
     20      37.9298      0.00000
     21      39.5385      0.00000
     22      42.7886      0.00000
     23      45.1736      0.00000
     24      45.8739      0.00000
     25      50.2952      0.00000
     26      55.4386      0.00000
     27      56.2743      0.00000
     28      59.6679      0.00000
     29      60.3785      0.00000
     30      60.8105      0.00000
     31      62.4376      0.00000
     32      62.4866      0.00000
     33      62.7341      0.00000
     34      65.2618      0.00000
     35      65.3743      0.00000
     36      67.4544      0.00000
     37      68.2192      0.00000
     38      68.2349      0.00000
     39      70.0882      0.00000
     40      70.4824      0.00000

 k-point     7 :       0.0909    0.0909    0.0000
  band No.  band energies     occupation 
      1      -0.3191      2.00000
      2       3.2780      2.00000
      3       5.4529      2.00000
      4       5.6353      2.00000
      5       6.3506      2.00000
      6       6.4554      2.00000
      7       6.9759      2.00000
      8       7.0736      2.00000
      9       7.3445      2.00000
     10       7.5285      2.00012
     11       9.0940     -0.00000
     12      11.8233     -0.00000
     13      16.8796      0.00000
     14      29.2293      0.00000
     15      30.7916      0.00000
     16      34.1015      0.00000
     17      34.8388      0.00000
     18      36.3785      0.00000
     19      36.7388      0.00000
     20      39.0498      0.00000
     21      40.5331      0.00000
     22      44.4498      0.00000
     23      44.4546      0.00000
     24      45.5369      0.00000
     25      46.2231      0.00000
     26      46.5583      0.00000
     27      46.7817      0.00000
     28      52.6640      0.00000
     29      55.1866      0.00000
     30      55.8452      0.00000
     31      55.8917      0.00000
     32      59.3955      0.00000
     33      60.6414      0.00000
     34      62.5720      0.00000
     35      63.0967      0.00000
     36      63.1066      0.00000
     37      64.5273      0.00000
     38      69.2385      0.00000
     39      70.0816      0.00000
     40      71.3412      0.00000

 k-point     8 :       0.1818    0.0909    0.0000
  band No.  band energies     occupation 
      1       0.9022      2.00000
      2       3.8414      2.00000
      3       4.6682      2.00000
      4       5.0732      2.00000
      5       6.0532      2.00000
      6       6.5997      2.00000
      7       6.9515      2.00000
      8       7.2491      2.00000
      9       7.7734      2.02494
     10       8.1545      0.91183
     11       9.1128     -0.00000
     12      13.8539      0.00000
     13      17.0480      0.00000
     14      25.5766      0.00000
     15      28.2894      0.00000
     16      31.3736      0.00000
     17      33.7090      0.00000
     18      34.2364      0.00000
     19      37.5541      0.00000
     20      38.4878      0.00000
     21      39.2881      0.00000
     22      43.9284      0.00000
     23      44.1689      0.00000
     24      45.1349      0.00000
     25      48.1976      0.00000
     26      49.0341      0.00000
     27      50.9459      0.00000
     28      55.7735      0.00000
     29      57.4304      0.00000
     30      58.2242      0.00000
     31      58.4724      0.00000
     32      60.4712      0.00000
     33      60.8128      0.00000
     34      61.9178      0.00000
     35      62.4001      0.00000
     36      62.8875      0.00000
     37      65.0735      0.00000
     38      69.7084      0.00000
     39      69.7716      0.00000
     40      71.0746      0.00000

 k-point     9 :       0.2727    0.0909    0.0000
  band No.  band energies     occupation 
      1       2.2839      2.00000
      2       3.7478      2.00000
      3       3.9269      2.00000
      4       5.1677      2.00000
      5       6.1369      2.00000
      6       6.2348      2.00000
      7       6.8326      2.00000
      8       7.8001      2.03536
      9       8.6541     -0.00185
     10       9.1175     -0.00000
     11       9.2136     -0.00000
     12      16.1397      0.00000
     13      17.2736      0.00000
     14      21.8791      0.00000
     15      26.4749      0.00000
     16      28.0179      0.00000
     17      31.0209      0.00000
     18      32.4768      0.00000
     19      36.9949      0.00000
     20      38.1482      0.00000
     21      39.8046      0.00000
     22      43.6895      0.00000
     23      43.7194      0.00000
     24      46.3853      0.00000
     25      50.3238      0.00000
     26      52.9362      0.00000
     27      54.7554      0.00000
     28      55.6723      0.00000
     29      56.4409      0.00000
     30      59.3614      0.00000
     31      60.2041      0.00000
     32      61.7720      0.00000
     33      62.2252      0.00000
     34      62.6547      0.00000
     35      63.5274      0.00000
     36      65.0716      0.00000
     37      67.9843      0.00000
     38      68.9607      0.00000
     39      69.3209      0.00000
     40      71.3486      0.00000

 k-point    10 :       0.3636    0.0909    0.0000
  band No.  band energies     occupation 
      1       3.0647      2.00000
      2       3.4307      2.00000
      3       3.4725      2.00000
      4       5.6594      2.00000
      5       6.0447      2.00000
      6       6.4514      2.00000
      7       6.5264      2.00000
      8       8.8023     -0.00003
      9       9.1125     -0.00000
     10       9.2769     -0.00000
     11      10.5603     -0.00000
     12      16.1039      0.00000
     13      18.5146      0.00000
     14      20.5914      0.00000
     15      25.0051      0.00000
     16      25.0640      0.00000
     17      27.7895      0.00000
     18      31.5262      0.00000
     19      36.0067      0.00000
     20      37.5763      0.00000
     21      40.7359      0.00000
     22      44.0825      0.00000
     23      45.1152      0.00000
     24      46.2155      0.00000
     25      52.2335      0.00000
     26      53.1231      0.00000
     27      55.4282      0.00000
     28      56.8931      0.00000
     29      58.7315      0.00000
     30      60.3880      0.00000
     31      60.8706      0.00000
     32      62.2197      0.00000
     33      62.7861      0.00000
     34      65.0837      0.00000
     35      66.3487      0.00000
     36      66.8747      0.00000
     37      67.0893      0.00000
     38      69.6585      0.00000
     39      70.5370      0.00000
     40      71.1116      0.00000

 k-point    11 :       0.4545    0.0909    0.0000
  band No.  band energies     occupation 
      1       3.1185      2.00000
      2       3.3200      2.00000
      3       3.3895      2.00000
      4       6.0104      2.00000
      5       6.0610      2.00000
      6       6.2751      2.00000
      7       6.6654      2.00000
      8       9.1083     -0.00000
      9       9.3654     -0.00000
     10       9.3843     -0.00000
     11      11.8754     -0.00000
     12      14.2669      0.00000
     13      20.1122      0.00000
     14      21.2616      0.00000
     15      23.1925      0.00000
     16      24.2856      0.00000
     17      26.2464      0.00000
     18      31.1777      0.00000
     19      35.5848      0.00000
[...]
     17      28.6434      0.00000
     18      29.9154      0.00000
     19      35.1895      0.00000
     20      35.8532      0.00000
     21      39.7943      0.00000
     22      40.4920      0.00000
     23      45.3680      0.00000
     24      46.5144      0.00000
     25      52.4802      0.00000
     26      54.2860      0.00000
     27      56.3345      0.00000
     28      57.0840      0.00000
     29      60.0078      0.00000
     30      61.3231      0.00000
     31      62.0729      0.00000
     32      62.3487      0.00000
     33      64.6763      0.00000
     34      65.0290      0.00000
     35      65.9658      0.00000
     36      66.4538      0.00000
     37      67.5485      0.00000
     38      68.9427      0.00000
     39      70.7986      0.00000
     40      71.3290      0.00000

 k-point    91 :       0.4545    0.0909    0.4545
  band No.  band energies     occupation 
      1       2.7765      2.00000
      2       2.9481      2.00000
      3       4.3250      2.00000
      4       4.4557      2.00000
      5       6.8919      2.00000
      6       7.3684      2.00000
      7       8.1145      1.24685
      8       8.4547     -0.05047
      9       9.2455     -0.00000
     10       9.2462     -0.00000
     11      11.7454     -0.00000
     12      12.3008     -0.00000
     13      18.8224      0.00000
     14      18.8612      0.00000
     15      27.1816      0.00000
     16      27.9653      0.00000
     17      29.3740      0.00000
     18      29.9105      0.00000
     19      34.9586      0.00000
     20      35.1163      0.00000
     21      39.1097      0.00000
     22      39.3429      0.00000
     23      45.5155      0.00000
     24      46.6912      0.00000
     25      52.7309      0.00000
     26      54.5761      0.00000
     27      59.2374      0.00000
     28      59.9658      0.00000
     29      60.1696      0.00000
     30      60.6663      0.00000
     31      61.2987      0.00000
     32      61.9679      0.00000
     33      65.5523      0.00000
     34      65.9054      0.00000
     35      66.6355      0.00000
     36      67.4929      0.00000
     37      68.6752      0.00000
     38      68.8363      0.00000
     39      71.5308      0.00000
     40      71.7220      0.00000

 k-point    92 :       0.1818    0.1818    0.4545
  band No.  band energies     occupation 
      1       2.9829      2.00000
      2       3.2472      2.00000
      3       4.9826      2.00000
      4       5.0395      2.00000
      5       5.5515      2.00000
      6       5.6155      2.00000
      7       7.2775      2.00000
      8       7.5605      2.00029
      9       9.0114     -0.00000
     10       9.1344     -0.00000
     11       9.7032     -0.00000
     12      10.3311     -0.00000
     13      25.0908      0.00000
     14      25.4499      0.00000
     15      25.7396      0.00000
     16      26.9204      0.00000
     17      27.4468      0.00000
     18      28.9208      0.00000
     19      39.2434      0.00000
     20      40.3440      0.00000
     21      41.0247      0.00000
     22      42.1918      0.00000
     23      44.2653      0.00000
     24      44.3804      0.00000
     25      50.9028      0.00000
     26      51.4145      0.00000
     27      55.1634      0.00000
     28      55.6169      0.00000
     29      57.7391      0.00000
     30      59.1614      0.00000
     31      60.2802      0.00000
     32      60.7565      0.00000
     33      61.9933      0.00000
     34      62.0376      0.00000
     35      64.0359      0.00000
     36      64.1953      0.00000
     37      67.4477      0.00000
     38      69.2199      0.00000
     39      69.6281      0.00000
     40      69.9572      0.00000

 k-point    93 :       0.2727    0.1818    0.4545
  band No.  band energies     occupation 
      1       3.2755      2.00000
      2       3.3919      2.00000
      3       4.7574      2.00000
      4       4.9958      2.00000
      5       5.8791      2.00000
      6       6.0696      2.00000
      7       7.2170      2.00000
      8       7.4899      2.00004
      9       9.1284     -0.00000
     10       9.4077     -0.00000
     11      11.3268     -0.00000
     12      11.9147     -0.00000
     13      21.8459      0.00000
     14      22.4565      0.00000
     15      24.7261      0.00000
     16      25.5111      0.00000
     17      28.1319      0.00000
     18      29.9896      0.00000
     19      37.1543      0.00000
     20      38.6957      0.00000
     21      40.0874      0.00000
     22      41.5885      0.00000
     23      44.7012      0.00000
     24      45.2363      0.00000
     25      52.2410      0.00000
     26      52.7782      0.00000
     27      56.3890      0.00000
     28      58.1007      0.00000
     29      60.0490      0.00000
     30      61.5880      0.00000
     31      62.1191      0.00000
     32      62.2160      0.00000
     33      63.3146      0.00000
     34      63.4714      0.00000
     35      64.3292      0.00000
     36      64.7796      0.00000
     37      67.7318      0.00000
     38      69.6526      0.00000
     39      70.1883      0.00000
     40      70.7210      0.00000

 k-point    94 :       0.3636    0.1818    0.4545
  band No.  band energies     occupation 
      1       3.2757      2.00000
      2       3.4531      2.00000
      3       4.6184      2.00000
      4       4.8523      2.00000
      5       5.9991      2.00000
      6       6.3859      2.00000
      7       7.6068      2.00097
      8       7.7461      2.01652
      9       9.0866     -0.00000
     10       9.2801     -0.00000
     11      13.1323     -0.00000
     12      13.6061      0.00000
     13      19.2211      0.00000
     14      19.6118      0.00000
     15      24.0659      0.00000
     16      24.8592      0.00000
     17      29.7421      0.00000
     18      30.9405      0.00000
     19      35.6782      0.00000
     20      36.7894      0.00000
     21      38.9405      0.00000
     22      40.5335      0.00000
     23      45.6004      0.00000
     24      46.0168      0.00000
     25      55.4060      0.00000
     26      55.9809      0.00000
     27      56.8128      0.00000
     28      58.4866      0.00000
     29      59.8402      0.00000
     30      60.3423      0.00000
     31      61.4914      0.00000
     32      62.3988      0.00000
     33      64.3876      0.00000
     34      64.5968      0.00000
     35      66.4131      0.00000
     36      67.0735      0.00000
     37      68.5687      0.00000
     38      68.9611      0.00000
     39      69.7437      0.00000
     40      70.8574      0.00000

 k-point    95 :       0.2727    0.2727    0.4545
  band No.  band energies     occupation 
      1       3.7111      2.00000
      2       3.7822      2.00000
      3       4.8451      2.00000
      4       5.0927      2.00000
      5       5.5388      2.00000
      6       5.7881      2.00000
      7       7.1431      2.00000
      8       7.3742      2.00000
      9       9.1030     -0.00000
     10       9.3111     -0.00000
     11      13.6188      0.00000
     12      14.1839      0.00000
     13      20.1839      0.00000
     14      20.6594      0.00000
     15      22.2786      0.00000
     16      22.7193      0.00000
     17      29.9460      0.00000
     18      31.6787      0.00000
     19      35.6757      0.00000
     20      37.2054      0.00000
     21      38.7488      0.00000
     22      39.9881      0.00000
     23      47.5566      0.00000
     24      47.9918      0.00000
     25      52.4905      0.00000
     26      52.5750      0.00000
     27      59.3366      0.00000
     28      59.7649      0.00000
     29      60.0390      0.00000
     30      61.1060      0.00000
     31      62.5438      0.00000
     32      62.6502      0.00000
     33      62.7337      0.00000
     34      63.0333      0.00000
     35      66.4895      0.00000
     36      66.5773      0.00000
     37      67.9114      0.00000
     38      68.2819      0.00000
     39      68.8640      0.00000
     40      70.0633      0.00000

 k-point    96 :       0.3636    0.2727    0.4545
  band No.  band energies     occupation 
      1       3.9328      2.00000
      2       4.0859      2.00000
      3       4.7393      2.00000
      4       4.8234      2.00000
      5       5.5815      2.00000
      6       5.7146      2.00000
      7       7.2231      2.00000
      8       7.3981      2.00000
      9       9.0698     -0.00000
     10       9.1480     -0.00000
     11      15.5253      0.00000
     12      15.6744      0.00000
     13      18.4721      0.00000
     14      18.8567      0.00000
     15      21.6318      0.00000
     16      22.0830      0.00000
     17      31.6244      0.00000
     18      32.5678      0.00000
     19      34.8696      0.00000
     20      35.0830      0.00000
     21      38.5418      0.00000
     22      39.4225      0.00000
     23      48.8938      0.00000
     24      49.5845      0.00000
     25      53.6402      0.00000
     26      54.0501      0.00000
     27      57.0064      0.00000
     28      57.3671      0.00000
     29      60.6670      0.00000
     30      61.8159      0.00000
     31      62.5220      0.00000
     32      62.8031      0.00000
     33      63.9609      0.00000
     34      64.1848      0.00000
     35      64.5492      0.00000
     36      66.1153      0.00000
     37      67.9532      0.00000
     38      69.9189      0.00000
     39      70.8251      0.00000
     40      71.2259      0.00000


--------------------------------------------------------------------------------------------------------


 soft charge-density along one line, spin component           1
         0         1         2         3         4         5         6         7         8         9
x     7.7932    0.0000    0.0804   -0.1392   -0.0547   -0.0947    0.0209   -0.0000    0.0012   -0.0021
x     0.0000    0.0000
y     7.7932    0.0000    0.0804    0.1392   -0.0547    0.0947    0.0209    0.0000    0.0012    0.0021
y     0.0000    0.0000
z     7.7932    0.0000    0.0000    0.0000    0.3226    0.0000    0.0000    0.0000   -0.1446   -0.0000
z     0.0000   -0.0000    0.0227   -0.0000    0.0000   -0.0000    0.0000    0.0000
 total charge-density along one line
x    16.0000    0.0000    1.4345   -2.4846    0.2727    0.4724    0.0133    0.0000    0.0017   -0.0030
x    -0.0002   -0.0004    0.0003   -0.0000   -0.0001    0.0001    0.0000    0.0000   -0.0001    0.0000
x     0.0000    0.0000
y    16.0000    0.0000    1.4345    2.4846    0.2727   -0.4724    0.0133   -0.0000    0.0017    0.0030
y    -0.0002    0.0004    0.0003    0.0000   -0.0001   -0.0001    0.0000   -0.0000   -0.0001   -0.0000
y     0.0000   -0.0000
z    16.0000    0.0000    0.0000    0.0000    5.7221    0.0000    0.0000    0.0000    1.1382   -0.0000
z     0.0000    0.0000    0.0151   -0.0000    0.0000    0.0000    0.0037    0.0000    0.0000    0.0000
z    -0.0011   -0.0000    0.0000    0.0000    0.0005   -0.0000    0.0000    0.0000   -0.0003    0.0000
z    -0.0000    0.0000    0.0003    0.0000
 
 pseudopotential strength for first ion, spin component:           1
 -3.706  -0.000  -0.000   0.000  -0.000  -4.290  -0.000  -0.000
 -0.000  -3.697  -0.000  -0.000  -0.000  -0.000  -4.281  -0.000
 -0.000  -0.000  -3.706  -0.000  -0.000  -0.000  -0.000  -4.291
  0.000  -0.000  -0.000  -3.697  -0.000   0.000  -0.000  -0.000
 -0.000  -0.000  -0.000  -0.000  -3.706  -0.000  -0.000  -0.000
 -4.290  -0.000  -0.000   0.000  -0.000  -4.832  -0.000  -0.000
 -0.000  -4.281  -0.000  -0.000  -0.000  -0.000  -4.822  -0.000
 -0.000  -0.000  -4.291  -0.000  -0.000  -0.000  -0.000  -4.832
  0.000  -0.000  -0.000  -4.281  -0.000   0.000  -0.000  -0.000
 -0.000  -0.000  -0.000  -0.000  -4.290  -0.000  -0.000  -0.000
  0.000  -0.000   0.001   0.000  -0.000   0.000  -0.000   0.001
  0.000  -0.000   0.002   0.000  -0.000   0.000  -0.000   0.001
 -0.000   0.000   0.000   0.000  -0.001  -0.000   0.000   0.000
  0.000  -0.000   0.000  -0.000   0.000   0.000  -0.000   0.000
 -0.001   0.000   0.000   0.000  -0.000  -0.001   0.000   0.000
 -0.000   0.000   0.000   0.000  -0.001  -0.000   0.000   0.000
  0.000  -0.000   0.000  -0.000   0.000   0.000  -0.000   0.000
 -0.001   0.000   0.000   0.000  -0.000  -0.001   0.000   0.000
 total augmentation occupancy for first ion, spin component:           1
  1.816  -0.000   0.000   0.000   0.000  -1.353   0.000  -0.000   0.000  -0.000  -0.000   0.000   0.000   0.000   0.040  -0.000
  0.000   2.198   0.000  -0.000   0.000   0.000  -1.538  -0.000   0.000   0.000  -0.000   0.000  -0.000   0.000   0.000   0.000
  0.000  -0.000   1.479   0.000  -0.000  -0.000   0.000  -1.091   0.000   0.000   0.012  -0.008  -0.000   0.000   0.000  -0.000
  0.000  -0.000   0.000   2.198   0.000   0.000   0.000  -0.000  -1.538  -0.000   0.000   0.000   0.000   0.000   0.000   0.000
  0.000   0.000  -0.000  -0.000   1.816  -0.000   0.000   0.000   0.000  -1.353   0.000  -0.000   0.040  -0.000  -0.000  -0.002
 -1.353   0.000  -0.000   0.000  -0.000   2.269   0.000   0.000  -0.000   0.000   0.000  -0.000  -0.000   0.000  -0.056   0.000
  0.000  -1.538  -0.000   0.000   0.000  -0.000   2.227  -0.000  -0.000   0.000  -0.000  -0.000  -0.000   0.000  -0.000  -0.000
 -0.000   0.000  -1.091   0.000   0.000   0.000   0.000   2.066  -0.000  -0.000  -0.069   0.004   0.000   0.000  -0.000   0.000
  0.000   0.000   0.000  -1.538  -0.000  -0.000  -0.000  -0.000   2.227   0.000   0.000  -0.000   0.000  -0.000   0.000   0.000
 -0.000   0.000   0.000  -0.000  -1.353   0.000   0.000  -0.000   0.000   2.269  -0.000   0.000  -0.056   0.000   0.000   0.002
  0.000   0.000   0.012   0.000   0.000   0.000  -0.000  -0.069  -0.000  -0.000   3.004  -0.359   0.000   0.000   0.000   0.000
  0.000  -0.000  -0.008  -0.000  -0.000  -0.000  -0.000   0.004   0.000   0.000  -0.359   0.048  -0.000   0.000  -0.000   0.000
  0.000  -0.000   0.000   0.000   0.040  -0.000   0.000   0.000   0.000  -0.056   0.000   0.000   0.409  -0.000  -0.000  -0.032
  0.000  -0.000   0.000   0.000  -0.000   0.000   0.000   0.000   0.000  -0.000   0.000   0.000  -0.000   0.395   0.000   0.000
  0.040   0.000   0.000   0.000  -0.000  -0.056  -0.000  -0.000   0.000   0.000  -0.000  -0.000  -0.000   0.000   0.409   0.000
 -0.000  -0.000   0.000   0.000  -0.002   0.000   0.000  -0.000   0.000   0.002   0.000  -0.000  -0.032   0.000   0.000   0.003
  0.000  -0.000   0.000  -0.000  -0.000   0.000  -0.000   0.000  -0.000  -0.000   0.000   0.000  -0.000  -0.034  -0.000  -0.000
 -0.002   0.000  -0.000   0.000   0.000   0.002   0.000   0.000  -0.000  -0.000   0.000   0.000   0.000   0.000  -0.032  -0.000


------------------------ aborting loop because EDIFF is reached ----------------------------------------


    CHARGE:  cpu time    0.0176: real time    0.0176
    FORLOC:  cpu time    0.0002: real time    0.0002
    FORNL :  cpu time    0.0893: real time    0.0894
    STRESS:  cpu time    0.1344: real time    0.1344
    FORCOR:  cpu time    0.0030: real time    0.0030
    FORHAR:  cpu time    0.0006: real time    0.0006
    MIXING:  cpu time    0.0002: real time    0.0002

  FORCE on cell =-STRESS in cart. coord.  units (eV):
  Direction    XX          YY          ZZ          XY          YZ          ZX
  --------------------------------------------------------------------------------------
  Alpha Z   150.82267   150.82267   150.82267
  Ewald    -413.38759  -413.38759  -444.58092     0.00000    -0.00000     0.00000
  Hartree    56.31179    56.31179    45.36060    -0.00000    -0.00000    -0.00000
  E(xc)     -79.73749   -79.73750   -79.53124     0.00015    -0.00000    -0.00000
  Local     113.51808   113.51827   153.50415    -0.00072     0.00000    -0.00000
  n-local   -50.20727   -49.77293   -52.00943    -4.54544     1.51936     1.05175
  augment    75.20444    75.20412    75.46483     0.00086    -0.00000     0.00000
  Kinetic   156.75000   150.53861   151.36164     1.12493    -1.03817     0.10037
  Fock        0.00000     0.00000     0.00000     0.00000     0.00000     0.00000
  -------------------------------------------------------------------------------------
  Total       6.38603     6.38603     0.39230    -0.00000     0.00000     0.00000
  in kB     558.19174   558.19174    34.29040    -0.00000     0.00000     0.00000
  external pressure =      383.56 kB  Pullay stress =        0.00 kB


 VOLUME and BASIS-vectors are now :
 -----------------------------------------------------------------------------
  energy-cutoff  :      280.00
  volume of cell :       18.33
      direct lattice vectors                 reciprocal lattice vectors
     2.306700000  0.000000000  0.000000000     0.433519747  0.250292743  0.000000000
    -1.153350000  1.997660799  0.000000000     0.000000000  0.500585485  0.000000000
     0.000000000  0.000000000  3.977820000     0.000000000  0.000000000  0.251393980

  length of vectors
     2.306700000  2.306700000  3.977820000     0.500585485  0.500585485  0.251393980


 FORCES acting on ions
    electron-ion (+dipol)            ewald-force                    non-local-force                 convergence-correction
 -----------------------------------------------------------------------------------------------
   0.492E-07 -.746E-06 0.318E-15   0.684E-12 -.379E-12 -.258E-13   0.233E-16 -.120E-16 -.152E-18   -.967E-08 0.554E-08 -.191E-13
   -.572E-05 0.444E-05 0.711E-13   -.681E-12 0.388E-12 0.258E-13   -.250E-16 0.118E-16 -.139E-18   0.977E-08 -.560E-08 -.279E-17
 -----------------------------------------------------------------------------------------------
   -.567E-05 0.369E-05 0.714E-13   0.313E-14 0.847E-14 0.229E-16   -.169E-17 -.240E-18 -.291E-18   0.916E-10 -.526E-10 -.191E-13
 
 
 POSITION                                       TOTAL-FORCE (eV/Angst)
 -----------------------------------------------------------------------------------
      0.00000      0.00000      0.00000        -0.000000      0.000000     -0.000000
      0.00000      1.33177      1.98891         0.000000     -0.000000      0.000000
 -----------------------------------------------------------------------------------
    total drift:                               -0.000006      0.000004      0.000000


--------------------------------------------------------------------------------------------------------



  FREE ENERGIE OF THE ION-ELECTRON SYSTEM (eV)
  ---------------------------------------------------
  free  energy   TOTEN  =       -15.93548278 eV

  energy  without entropy=      -15.93619592  energy(sigma->0) =      -15.93572049
 


--------------------------------------------------------------------------------------------------------


    POTLOK:  cpu time    0.0051: real time    0.0051


--------------------------------------------------------------------------------------------------------


 writing wavefunctions
     LOOP+:  cpu time    8.9603: real time    8.9804
    4ORBIT:  cpu time    0.0000: real time    0.0000

 total amount of memory used by VASP MPI-rank0    48699. kBytes
=======================================================================

   base      :      30000. kBytes
   nonl-proj :       2895. kBytes
   grid      :        721. kBytes
   one-center:         31. kBytes
   wavefun   :      15052. kBytes
 
  
  
 General timing and accounting informations for this job:
 ========================================================
  
                  Total CPU time used (sec):        9.138
                            User time (sec):        9.078
                          System time (sec):        0.060
                         Elapsed time (sec):        9.148
  
                   Maximum memory used (kb):       52992.
                   Average memory used (kb):          N/A
  
                          Minor page faults:         6951
                          Major page faults:            0
                 Voluntary context switches:           27
