unknown system                          
           1
     2.306700    0.000000    0.000000
    -1.153350    1.997661    0.000000
     0.000000    0.000000    3.977820
   Fe
     2
Direct configuration=     1
   0.00000000  0.00000000  0.00000000
   0.33333333  0.66666667  0.50000000
