unknown system                          
   1.00000000000000     
     3.445083    0.000000    0.000000
     0.000000    3.445083    0.000000
     0.000000    0.000000    3.445083
   Fe
     4
Direct
  0.000000  0.000000  0.000000
  0.500000  0.500000  0.000000
  0.500000  0.000000  0.500000
  0.000000  0.500000  0.500000
 
   32   32   32
  343.49      327.99      285.75      227.41      165.28      109.33      65.782      37.055      21.970      16.116    
  13.565      11.790      10.667      9.9936      9.5828      9.3371      9.2504      9.3371      9.5828      9.9936    
  10.667      11.790      13.565      16.116      21.970      37.055      65.782      109.33      165.28      227.41    
  285.75      327.99      327.99      313.18      272.83      217.07      157.66      104.23      62.770      35.593    
  21.470      16.031      13.555      11.824      10.729      10.069      9.6648      9.4225      9.3371      9.4225    
  9.6648      10.069      10.729      11.824      13.555      16.031      21.470      35.593      62.770      104.23    
  157.66      217.07      272.83      313.18      285.75      272.83      237.58      188.82      136.89      90.380    
  54.672      31.738      20.200      15.815      13.526      11.922      10.904      10.283      9.8974      9.6648    
  9.5828      9.6648      9.8974      10.283      10.904      11.922      13.526      15.815      20.200      31.738    
  54.672      90.380      136.89      188.82      237.58      272.83      227.41      217.07      188.82      149.75    
  108.27      71.502      43.885      26.822      18.707      15.529      13.495      12.088      11.192      10.636    
  10.283      10.069      9.9936      10.069      10.283      10.636      11.192      12.088      13.495      15.529    
  18.707      26.822      43.885      71.502      108.27      149.75      188.82      217.07      165.28      157.66    
  136.89      108.27      78.195      52.095      33.251      22.333      17.495      15.201      13.509      12.366    
  11.642      11.192      10.904      10.729      10.667      10.729      10.904      11.192      11.642      12.366    
  13.509      15.201      17.495      22.333      33.251      52.095      78.195      108.27      136.89      157.66    
  109.33      104.23      90.380      71.502      52.095      35.915      24.986      19.229      16.666      14.916    
  13.655      12.846      12.366      12.088      11.922      11.824      11.790      11.824      11.922      12.088    
  12.366      12.846      13.655      14.916      16.666      19.229      24.986      35.915      52.095      71.502    
  90.380      104.23      65.782      62.770      54.672      43.885      33.251      24.986      19.965      17.518    
  15.968      14.790      14.042      13.655      13.509      13.495      13.526      13.555      13.565      13.555    
  13.526      13.495      13.509      13.655      14.042      14.790      15.968      17.518      19.965      24.986    
  33.251      43.885      54.672      62.770      37.055      35.593      31.738      26.822      22.333      19.229    
  17.518      16.360      15.465      14.943      14.790      14.916      15.201      15.529      15.815      16.031    
  16.116      16.031      15.815      15.529      15.201      14.916      14.790      14.943      15.465      16.360    
  17.518      19.229      22.333      26.822      31.738      35.593      21.970      21.470      20.200      18.707    
  17.495      16.666      15.968      15.465      15.281      15.465      15.968      16.666      17.495      18.707    
  20.200      21.470      21.970      21.470      20.200      18.707      17.495      16.666      15.968      15.465    
  15.281      15.465      15.968      16.666      17.495      18.707      20.200      21.470      16.116      16.031    
  15.815      15.529      15.201      14.916      14.790      14.943      15.465      16.360      17.518      19.229    
  22.333      26.822      31.738      35.593      37.055      35.593      31.738      26.822      22.333      19.229    
  17.518      16.360      15.465      14.943      14.790      14.916      15.201      15.529      15.815      16.031    
  13.565      13.555      13.526      13.495      13.509      13.655      14.042      14.790      15.968      17.518    
  19.965      24.986      33.251      43.885      54.672      62.770      65.782      62.770      54.672      43.885    
  33.251      24.986      19.965      17.518      15.968      14.790      14.042      13.655      13.509      13.495    
  13.526      13.555      11.790      11.824      11.922      12.088      12.366      12.846      13.655      14.916    
  16.666      19.229      24.986      35.915      52.095      71.502      90.380      104.23      109.33      104.23    
  90.380      71.502      52.095      35.915      24.986      19.229      16.666      14.916      13.655      12.846    
  12.366      12.088      11.922      11.824      10.667      10.729      10.904      11.192      11.642      12.366    
  13.509      15.201      17.495      22.333      33.251      52.095      78.195      108.27      136.89      157.66    
  165.28      157.66      136.89      108.27      78.195      52.095      33.251      22.333      17.495      15.201    
  13.509      12.366      11.642      11.192      10.904      10.729      9.9936      10.069      10.283      10.636    
  11.192      12.088      13.495      15.529      18.707      26.822      43.885      71.502      108.27      149.75    
  188.82      217.07      227.41      217.07      188.82      149.75      108.27      71.502      43.885      26.822    
  18.707      15.529      13.495      12.088      11.192      10.636      10.283      10.069      9.5828      9.6648    
  9.8974      10.283      10.904      11.922      13.526      15.815      20.200      31.738      54.672      90.380    
  136.89      188.82      237.58      272.83      285.75      272.83      237.58      188.82      136.89      90.380    
  54.672      31.738      20.200      15.815      13.526      11.922      10.904      10.283      9.8974      9.6648    
  9.3371      9.4225      9.6648      10.069      10.729      11.824      13.555      16.031      21.470      35.593    
  62.770      104.23      157.66      217.07      272.83      313.18      327.99      313.18      272.83      217.07    
  157.66      104.23      62.770      35.593      21.470      16.031      13.555      11.824      10.729      10.069    
  9.6648      9.4225      9.2504      9.3371      9.5828      9.9936      10.667      11.790      13.565      16.116    
  21.970      37.055      65.782      109.33      165.28      227.41      285.75      327.99      343.49      327.99    
  285.75      227.41      165.28      109.33      65.782      37.055      21.970      16.116      13.565      11.790    
  10.667      9.9936      9.5828      9.3371      9.3371      9.4225      9.6648      10.069      10.729      11.824    
  13.555      16.031      21.470      35.593      62.770      104.23      157.66      217.07      272.83      313.18    
  327.99      313.18      272.83      217.07      157.66      104.23      62.770      35.593      21.470      16.031    
  13.555      11.824      10.729      10.069      9.6648      9.4225      9.5828      9.6648      9.8974      10.283    
  10.904      11.922      13.526      15.815      20.200      31.738      54.672      90.380      136.89      188.82    
  237.58      272.83      285.75      272.83      237.58      188.82      136.89      90.380      54.672      31.738    
  20.200      15.815      13.526      11.922      10.904      10.283      9.8974      9.6648      9.9936      10.069    
  10.283      10.636      11.192      12.088      13.495      15.529      18.707      26.822      43.885      71.502    
  108.27      149.75      188.82      217.07      227.41      217.07      188.82      149.75      108.27      71.502    
  43.885      26.822      18.707      15.529      13.495      12.088      11.192      10.636      10.283      10.069    
  10.667      10.729      10.904      11.192      11.642      12.366      13.509      15.201      17.495      22.333    
  33.251      52.095      78.195      108.27      136.89      157.66      165.28      157.66      136.89      108.27    
  78.195      52.095      33.251      22.333      17.495      15.201      13.509      12.366      11.642      11.192    
  10.904      10.729      11.790      11.824      11.922      12.088      12.366      12.846      13.655      14.916    
  16.666      19.229      24.986      35.915      52.095      71.502      90.380      104.23      109.33      104.23    
  90.380      71.502      52.095      35.915      24.986      19.229      16.666      14.916      13.655      12.846    
  12.366      12.088      11.922      11.824      13.565      13.555      13.526      13.495      13.509      13.655    
  14.042      14.790      15.968      17.518      19.965      24.986      33.251      43.885      54.672      62.770    
  65.782      62.770      54.672      43.885      33.251      24.986      19.965      17.518      15.968      14.790    
  14.042      13.655      13.509      13.495      13.526      13.555      16.116      16.031      15.815      15.529    
  15.201      14.916      14.790      14.943      15.465      16.360      17.518      19.229      22.333      26.822    
  31.738      35.593      37.055      35.593      31.738      26.822      22.333      19.229      17.518      16.360    
  15.465      14.943      14.790      14.916      15.201      15.529      15.815      16.031      21.970      21.470    
  20.200      18.707      17.495      16.666      15.968      15.465      15.281      15.465      15.968      16.666    
  17.495      18.707      20.200      21.470      21.970      21.470      20.200      18.707      17.495      16.666    
  15.968      15.465      15.281      15.465      15.968      16.666      17.495      18.707      20.200      21.470    
  37.055      35.593      31.738      26.822      22.333      19.229      17.518      16.360      15.465      14.943    
  14.790      14.916      15.201      15.529      15.815      16.031      16.116      16.031      15.815      15.529    
  15.201      14.916      14.790      14.943      15.465      16.360      17.518      19.229      22.333      26.822    
  31.738      35.593      65.782      62.770      54.672      43.885      33.251      24.986      19.965      17.518    
  15.968      14.790      14.042      13.655      13.509      13.495      13.526      13.555      13.565      13.555    
  13.526      13.495      13.509      13.655      14.042      14.790      15.968      17.518      19.965      24.986    
  33.251      43.885      54.672      62.770      109.33      104.23      90.380      71.502      52.095      35.915    
  24.986      19.229      16.666      14.916      13.655      12.846      12.366      12.088      11.922      11.824    
  11.790      11.824      11.922      12.088      12.366      12.846      13.655      14.916      16.666      19.229    
  24.986      35.915      52.095      71.502      90.380      104.23      165.28      157.66      136.89      108.27    
  78.195      52.095      33.251      22.333      17.495      15.201      13.509      12.366      11.642      11.192    
  10.904      10.729      10.667      10.729      10.904      11.192      11.642      12.366      13.509      15.201    
  17.495      22.333      33.251      52.095      78.195      108.27      136.89      157.66      227.41      217.07    
  188.82      149.75      108.27      71.502      43.885      26.822      18.707      15.529      13.495      12.088    
  11.192      10.636      10.283      10.069      9.9936      10.069      10.283      10.636      11.192      12.088    
  13.495      15.529      18.707      26.822      43.885      71.502      108.27      149.75      188.82      217.07    
  285.75      272.83      237.58      188.82      136.89      90.380      54.672      31.738      20.200      15.815    
  13.526      11.922      10.904      10.283      9.8974      9.6648      9.5828      9.6648      9.8974      10.283    
  10.904      11.922      13.526      15.815      20.200      31.738      54.672      90.380      136.89      188.82    
  237.58      272.83      327.99      313.18      272.83      217.07      157.66      104.23      62.770      35.593    
  21.470      16.031      13.555      11.824      10.729      10.069      9.6648      9.4225      9.3371      9.4225    
  9.6648      10.069      10.729      11.824      13.555      16.031      21.470      35.593      62.770      104.23    
  157.66      217.07      272.83      313.18      327.99      313.18      272.83      217.07      157.66      104.23    
  62.770      35.593      21.470      16.031      13.555      11.824      10.729      10.069      9.6648      9.4225    
  9.3371      9.4225      9.6648      10.069      10.729      11.824      13.555      16.031      21.470      35.593    
  62.770      104.23      157.66      217.07      272.83      313.18      313.18      299.04      260.48      207.18    
  150.39      99.368      59.912      34.217      21.006      15.951      13.544      11.857      10.789      10.143    
  9.7454      9.5067      9.4225      9.5067      9.7454      10.143      10.789      11.857      13.544      15.951    
  21.006      34.217      59.912      99.368      150.39      207.18      260.48      299.04      272.83      260.48    
  226.80      180.18      130.55      86.173      52.236      30.597      19.832      15.743      13.512      11.951    
  10.959      10.353      9.9741      9.7454      9.6648      9.7454      9.9741      10.353      10.959      11.951    
  13.512      15.743      19.832      30.597      52.236      86.173      130.55      180.18      226.80      260.48    
  217.07      207.18      180.18      142.84      103.24      68.213      42.034      25.997      18.455      15.456    
  13.476      12.110      11.239      10.698      10.353      10.143      10.069      10.143      10.353      10.698    
  11.239      12.110      13.476      15.456      18.455      25.997      42.034      68.213      103.24      142.84    
  180.18      207.18      157.66      150.39      130.55      103.24      74.580      49.799      32.019      21.820    
  17.336      15.125      13.484      12.377      11.677      11.239      10.959      10.789      10.729      10.789    
  10.959      11.239      11.677      12.377      13.484      15.125      17.336      21.820      32.019      49.799    
  74.580      103.24      130.55      150.39      104.23      99.368      86.173      68.213      49.799      34.523    
  24.288      18.953      16.538      14.837      13.618      12.839      12.377      12.110      11.951      11.857    
  11.824      11.857      11.951      12.110      12.377      12.839      13.618      14.837      16.538      18.953    
  24.288      34.523      49.799      68.213      86.173      99.368      62.770      59.912      52.236      42.034    
  32.019      24.288      19.635      17.355      15.846      14.706      13.987      13.618      13.484      13.476    
  13.512      13.544      13.555      13.544      13.512      13.476      13.484      13.618      13.987      14.706    
  15.846      17.355      19.635      24.288      32.019      42.034      52.236      59.912      35.593      34.217    
  30.597      25.997      21.820      18.953      17.355      16.222      15.351      14.848      14.706      14.837    
  15.125      15.456      15.743      15.951      16.031      15.951      15.743      15.456      15.125      14.837    
  14.706      14.848      15.351      16.222      17.355      18.953      21.820      25.997      30.597      34.217    
  21.470      21.006      19.832      18.455      17.336      16.538      15.846      15.351      15.171      15.351    
  15.846      16.538      17.336      18.455      19.832      21.006      21.470      21.006      19.832      18.455    
  17.336      16.538      15.846      15.351      15.171      15.351      15.846      16.538      17.336      18.455    
  19.832      21.006      16.031      15.951      15.743      15.456      15.125      14.837      14.706      14.848    
  15.351      16.222      17.355      18.953      21.820      25.997      30.597      34.217      35.593      34.217    
  30.597      25.997      21.820      18.953      17.355      16.222      15.351      14.848      14.706      14.837    
  15.125      15.456      15.743      15.951      13.555      13.544      13.512      13.476      13.484      13.618    
  13.987      14.706      15.846      17.355      19.635      24.288      32.019      42.034      52.236      59.912    
  62.770      59.912      52.236      42.034      32.019      24.288      19.635      17.355      15.846      14.706    
  13.987      13.618      13.484      13.476      13.512      13.544      11.824      11.857      11.951      12.110    
  12.377      12.839      13.618      14.837      16.538      18.953      24.288      34.523      49.799      68.213    
  86.173      99.368      104.23      99.368      86.173      68.213      49.799      34.523      24.288      18.953    
  16.538      14.837      13.618      12.839      12.377      12.110      11.951      11.857      10.729      10.789    
  10.959      11.239      11.677      12.377      13.484      15.125      17.336      21.820      32.019      49.799    
  74.580      103.24      130.55      150.39      157.66      150.39      130.55      103.24      74.580      49.799    
  32.019      21.820      17.336      15.125      13.484      12.377      11.677      11.239      10.959      10.789    
  10.069      10.143      10.353      10.698      11.239      12.110      13.476      15.456      18.455      25.997    
  42.034      68.213      103.24      142.84      180.18      207.18      217.07      207.18      180.18      142.84    
  103.24      68.213      42.034      25.997      18.455      15.456      13.476      12.110      11.239      10.698    
  10.353      10.143      9.6648      9.7454      9.9741      10.353      10.959      11.951      13.512      15.743    
  19.832      30.597      52.236      86.173      130.55      180.18      226.80      260.48      272.83      260.48    
  226.80      180.18      130.55      86.173      52.236      30.597      19.832      15.743      13.512      11.951    
  10.959      10.353      9.9741      9.7454      9.4225      9.5067      9.7454      10.143      10.789      11.857    
  13.544      15.951      21.006      34.217      59.912      99.368      150.39      207.18      260.48      299.04    
  313.18      299.04      260.48      207.18      150.39      99.368      59.912      34.217      21.006      15.951    
  13.544      11.857      10.789      10.143      9.7454      9.5067      9.3371      9.4225      9.6648      10.069    
  10.729      11.824      13.555      16.031      21.470      35.593      62.770      104.23      157.66      217.07    
  272.83      313.18      327.99      313.18      272.83      217.07      157.66      104.23      62.770      35.593    
  21.470      16.031      13.555      11.824      10.729      10.069      9.6648      9.4225      9.4225      9.5067    
  9.7454      10.143      10.789      11.857      13.544      15.951      21.006      34.217      59.912      99.368    
  150.39      207.18      260.48      299.04      313.18      299.04      260.48      207.18      150.39      99.368    
  59.912      34.217      21.006      15.951      13.544      11.857      10.789      10.143      9.7454      9.5067    
  9.6648      9.7454      9.9741      10.353      10.959      11.951      13.512      15.743      19.832      30.597    
  52.236      86.173      130.55      180.18      226.80      260.48      272.83      260.48      226.80      180.18    
  130.55      86.173      52.236      30.597      19.832      15.743      13.512      11.951      10.959      10.353    
  9.9741      9.7454      10.069      10.143      10.353      10.698      11.239      12.110      13.476      15.456    
  18.455      25.997      42.034      68.213      103.24      142.84      180.18      207.18      217.07      207.18    
  180.18      142.84      103.24      68.213      42.034      25.997      18.455      15.456      13.476      12.110    
  11.239      10.698      10.353      10.143      10.729      10.789      10.959      11.239      11.677      12.377    
  13.484      15.125      17.336      21.820      32.019      49.799      74.580      103.24      130.55      150.39    
  157.66      150.39      130.55      103.24      74.580      49.799      32.019      21.820      17.336      15.125    
  13.484      12.377      11.677      11.239      10.959      10.789      11.824      11.857      11.951      12.110    
  12.377      12.839      13.618      14.837      16.538      18.953      24.288      34.523      49.799      68.213    
  86.173      99.368      104.23      99.368      86.173      68.213      49.799      34.523      24.288      18.953    
  16.538      14.837      13.618      12.839      12.377      12.110      11.951      11.857      13.555      13.544    
  13.512      13.476      13.484      13.618      13.987      14.706      15.846      17.355      19.635      24.288    
  32.019      42.034      52.236      59.912      62.770      59.912      52.236      42.034      32.019      24.288    
  19.635      17.355      15.846      14.706      13.987      13.618      13.484      13.476      13.512      13.544    
  16.031      15.951      15.743      15.456      15.125      14.837      14.706      14.848      15.351      16.222    
  17.355      18.953      21.820      25.997      30.597      34.217      35.593      34.217      30.597      25.997    
  21.820      18.953      17.355      16.222      15.351      14.848      14.706      14.837      15.125      15.456    
  15.743      15.951      21.470      21.006      19.832      18.455      17.336      16.538      15.846      15.351    
  15.171      15.351      15.846      16.538      17.336      18.455      19.832      21.006      21.470      21.006    
  19.832      18.455      17.336      16.538      15.846      15.351      15.171      15.351      15.846      16.538    
  17.336      18.455      19.832      21.006      35.593      34.217      30.597      25.997      21.820      18.953    
  17.355      16.222      15.351      14.848      14.706      14.837      15.125      15.456      15.743      15.951    
  16.031      15.951      15.743      15.456      15.125      14.837      14.706      14.848      15.351      16.222    
  17.355      18.953      21.820      25.997      30.597      34.217      62.770      59.912      52.236      42.034    
  32.019      24.288      19.635      17.355      15.846      14.706      13.987      13.618      13.484      13.476    
  13.512      13.544      13.555      13.544      13.512      13.476      13.484      13.618      13.987      14.706    
  15.846      17.355      19.635      24.288      32.019      42.034      52.236      59.912      104.23      99.368    
  86.173      68.213      49.799      34.523      24.288      18.953      16.538      14.837      13.618      12.839    
  12.377      12.110      11.951      11.857      11.824      11.857      11.951      12.110      12.377      12.839    
  13.618      14.837      16.538      18.953      24.288      34.523      49.799      68.213      86.173      99.368    
  157.66      150.39      130.55      103.24      74.580      49.799      32.019      21.820      17.336      15.125    
  13.484      12.377      11.677      11.239      10.959      10.789      10.729      10.789      10.959      11.239    
  11.677      12.377      13.484      15.125      17.336      21.820      32.019      49.799      74.580      103.24    
  130.55      150.39      217.07      207.18      180.18      142.84      103.24      68.213      42.034      25.997    
  18.455      15.456      13.476      12.110      11.239      10.698      10.353      10.143      10.069      10.143    
  10.353      10.698      11.239      12.110      13.476      15.456      18.455      25.997      42.034      68.213    
  103.24      142.84      180.18      207.18      272.83      260.48      226.80      180.18      130.55      86.173    
  52.236      30.597      19.832      15.743      13.512      11.951      10.959      10.353      9.9741      9.7454    
  9.6648      9.7454      9.9741      10.353      10.959      11.951      13.512      15.743      19.832      30.597    
  52.236      86.173      130.55      180.18      226.80      260.48      313.18      299.04      260.48      207.18    
  150.39      99.368      59.912      34.217      21.006      15.951      13.544      11.857      10.789      10.143    
  9.7454      9.5067      9.4225      9.5067      9.7454      10.143      10.789      11.857      13.544      15.951    
  21.006      34.217      59.912      99.368      150.39      207.18      260.48      299.04      285.75      272.83    
  237.58      188.82      136.89      90.380      54.672      31.738      20.200      15.815      13.526      11.922    
  10.904      10.283      9.8974      9.6648      9.5828      9.6648      9.8974      10.283      10.904      11.922    
  13.526      15.815      20.200      31.738      54.672      90.380      136.89      188.82      237.58      272.83    
  272.83      260.48      226.80      180.18      130.55      86.173      52.236      30.597      19.832      15.743    
  13.512      11.951      10.959      10.353      9.9741      9.7454      9.6648      9.7454      9.9741      10.353    
  10.959      11.951      13.512      15.743      19.832      30.597      52.236      86.173      130.55      180.18    
  226.80      260.48      237.58      226.80      197.35      156.59      113.28      74.778      45.715      27.610    
  18.905      15.546      13.472      12.033      11.117      10.551      10.192      9.9741      9.8974      9.9741    
  10.192      10.551      11.117      12.033      13.472      15.546      18.905      27.610      45.715      74.778    
  113.28      156.59      197.35      226.80      188.82      180.18      156.59      124.00      89.554      59.338    
  37.111      23.855      17.823      15.250      13.425      12.174      11.376      10.874      10.551      10.353    
  10.283      10.353      10.551      10.874      11.376      12.174      13.425      15.250      17.823      23.855    
  37.111      59.338      89.554      124.00      156.59      180.18      136.89      130.55      113.28      89.554    
  64.806      43.652      28.777      20.506      16.921      14.914      13.416      12.412      11.776      11.376    
  11.117      10.959      10.904      10.959      11.117      11.376      11.776      12.412      13.416      14.914    
  16.921      20.506      28.777      43.652      64.806      89.554      113.28      130.55      90.380      86.173    
  74.778      59.338      43.652      30.844      22.481      18.243      16.179      14.622      13.521      12.824    
  12.412      12.174      12.033      11.951      11.922      11.951      12.033      12.174      12.412      12.824    
  13.521      14.622      16.179      18.243      22.481      30.844      43.652      59.338      74.778      86.173    
  54.672      52.236      45.715      37.111      28.777      22.481      18.789      16.906      15.511      14.479    
  13.840      13.521      13.416      13.425      13.472      13.512      13.526      13.512      13.472      13.425    
  13.416      13.521      13.840      14.479      15.511      16.906      18.789      22.481      28.777      37.111    
  45.715      52.236      31.738      30.597      27.610      23.855      20.506      18.243      16.906      15.841    
  15.041      14.592      14.479      14.622      14.914      15.250      15.546      15.743      15.815      15.743    
  15.546      15.250      14.914      14.622      14.479      14.592      15.041      15.841      16.906      18.243    
  20.506      23.855      27.610      30.597      20.200      19.832      18.905      17.823      16.921      16.179    
  15.511      15.041      14.872      15.041      15.511      16.179      16.921      17.823      18.905      19.832    
  20.200      19.832      18.905      17.823      16.921      16.179      15.511      15.041      14.872      15.041    
  15.511      16.179      16.921      17.823      18.905      19.832      15.815      15.743      15.546      15.250    
  14.914      14.622      14.479      14.592      15.041      15.841      16.906      18.243      20.506      23.855    
  27.610      30.597      31.738      30.597      27.610      23.855      20.506      18.243      16.906      15.841    
  15.041      14.592      14.479      14.622      14.914      15.250      15.546      15.743      13.526      13.512    
  13.472      13.425      13.416      13.521      13.840      14.479      15.511      16.906      18.789      22.481    
  28.777      37.111      45.715      52.236      54.672      52.236      45.715      37.111      28.777      22.481    
  18.789      16.906      15.511      14.479      13.840      13.521      13.416      13.425      13.472      13.512    
  11.922      11.951      12.033      12.174      12.412      12.824      13.521      14.622      16.179      18.243    
  22.481      30.844      43.652      59.338      74.778      86.173      90.380      86.173      74.778      59.338    
  43.652      30.844      22.481      18.243      16.179      14.622      13.521      12.824      12.412      12.174    
  12.033      11.951      10.904      10.959      11.117      11.376      11.776      12.412      13.416      14.914    
  16.921      20.506      28.777      43.652      64.806      89.554      113.28      130.55      136.89      130.55    