unknown system                          
   1.00000000000000     
     3.445083    0.000000    0.000000
     0.000000    3.445083    0.000000
     0.000000    0.000000    3.445083
   Fe
     4
Direct
  0.000000  0.000000  0.000000
  0.500000  0.500000  0.000000
  0.500000  0.000000  0.500000
  0.000000  0.500000  0.500000
 
   32   32   32
 0.34348702805E+03 0.32798616990E+03 0.28574871593E+03 0.22741470398E+03 0.16527509273E+03
 0.10933014197E+03 0.65781822535E+02 0.37055231390E+02 0.21970272842E+02 0.16116492039E+02
 0.13564826374E+02 0.11790128516E+02 0.10667326060E+02 0.99936371971E+01 0.95827982290E+01
 0.93370837455E+01 0.92504176303E+01 0.93370837455E+01 0.95827982290E+01 0.99936371971E+01
 0.10667326060E+02 0.11790128516E+02 0.13564826374E+02 0.16116492039E+02 0.21970272842E+02
 0.37055231390E+02 0.65781822535E+02 0.10933014197E+03 0.16527509273E+03 0.22741470398E+03
 0.28574871593E+03 0.32798616990E+03 0.32798616990E+03 0.31318259953E+03 0.27282962229E+03
 0.21706869543E+03 0.15766084810E+03 0.10422990728E+03 0.62769584508E+02 0.35592766888E+02
 0.21469738006E+02 0.16030964105E+02 0.13554774870E+02 0.11824236396E+02 0.10728843037E+02
 0.10069052473E+02 0.96647773554E+01 0.94225100636E+01 0.93370837455E+01 0.94225100636E+01
 0.96647773554E+01 0.10069052473E+02 0.10728843037E+02 0.11824236396E+02 0.13554774870E+02
 0.16030964105E+02 0.21469738006E+02 0.35592766888E+02 0.62769584508E+02 0.10422990728E+03
 0.15766084810E+03 0.21706869543E+03 0.27282962229E+03 0.31318259953E+03 0.28574871593E+03
 0.27282962229E+03 0.23758177879E+03 0.18882337510E+03 0.13689383721E+03 0.90380330672E+02
 0.54671761501E+02 0.31737800885E+02 0.20199717370E+02 0.15814942053E+02 0.13526168592E+02
 0.11921899193E+02 0.10903985796E+02 0.10283302246E+02 0.98974295386E+01 0.96647773554E+01
 0.95827982290E+01 0.96647773554E+01 0.98974295386E+01 0.10283302246E+02 0.10903985796E+02
 0.11921899193E+02 0.13526168592E+02 0.15814942053E+02 0.20199717370E+02 0.31737800885E+02
 0.54671761501E+02 0.90380330672E+02 0.13689383721E+03 0.18882337510E+03 0.23758177879E+03
 0.27282962229E+03 0.22741470398E+03 0.21706869543E+03 0.18882337510E+03 0.14975188216E+03
 0.10827411866E+03 0.71502351853E+02 0.43884757323E+02 0.26822143730E+02 0.18706561881E+02
 0.15528962060E+02 0.13494885897E+02 0.12087712141E+02 0.11191688603E+02 0.10635808443E+02
 0.10283302246E+02 0.10069052473E+02 0.99936371971E+01 0.10069052473E+02 0.10283302246E+02
 0.10635808443E+02 0.11191688603E+02 0.12087712141E+02 0.13494885897E+02 0.15528962060E+02
 0.18706561881E+02 0.26822143730E+02 0.43884757323E+02 0.71502351853E+02 0.10827411866E+03
 0.14975188216E+03 0.18882337510E+03 0.21706869543E+03 0.16527509273E+03 0.15766084810E+03
 0.13689383721E+03 0.10827411866E+03 0.78195072347E+02 0.52095257262E+02 0.33250788281E+02
 0.22333004587E+02 0.17494741238E+02 0.15201179957E+02 0.13509377374E+02 0.12365613062E+02
 0.11642219732E+02 0.11191688603E+02 0.10903985796E+02 0.10728843037E+02 0.10667326060E+02
 0.10728843037E+02 0.10903985796E+02 0.11191688603E+02 0.11642219732E+02 0.12365613062E+02
 0.13509377374E+02 0.15201179957E+02 0.17494741238E+02 0.22333004587E+02 0.33250788281E+02
 0.52095257262E+02 0.78195072347E+02 0.10827411866E+03 0.13689383721E+03 0.15766084810E+03
 0.10933014197E+03 0.10422990728E+03 0.90380330672E+02 0.71502351853E+02 0.52095257262E+02
 0.35915141588E+02 0.24985753856E+02 0.19229445576E+02 0.16666195272E+02 0.14916009357E+02
 0.13654520975E+02 0.12846292561E+02 0.12365613062E+02 0.12087712141E+02 0.11921899193E+02
 0.11824236396E+02 0.11790128516E+02 0.11824236396E+02 0.11921899193E+02 0.12087712141E+02
 0.12365613062E+02 0.12846292561E+02 0.13654520975E+02 0.14916009357E+02 0.16666195272E+02
 0.19229445576E+02 0.24985753856E+02 0.35915141588E+02 0.52095257262E+02 0.71502351853E+02
 0.90380330672E+02 0.10422990728E+03 0.65781822535E+02 0.62769584508E+02 0.54671761501E+02
 0.43884757323E+02 0.33250788281E+02 0.24985753856E+02 0.19964948655E+02 0.17518202131E+02
 0.15968054218E+02 0.14789520149E+02 0.14042008820E+02 0.13654520975E+02 0.13509377374E+02
 0.13494885897E+02 0.13526168592E+02 0.13554774870E+02 0.13564826374E+02 0.13554774870E+02
 0.13526168592E+02 0.13494885897E+02 0.13509377374E+02 0.13654520975E+02 0.14042008820E+02
 0.14789520149E+02 0.15968054218E+02 0.17518202131E+02 0.19964948655E+02 0.24985753856E+02
 0.33250788281E+02 0.43884757323E+02 0.54671761501E+02 0.62769584508E+02 0.37055231390E+02
 0.35592766888E+02 0.31737800885E+02 0.26822143730E+02 0.22333004587E+02 0.19229445576E+02
 0.17518202131E+02 0.16360373095E+02 0.15464791416E+02 0.14942837939E+02 0.14789520149E+02
 0.14916009357E+02 0.15201179957E+02 0.15528962060E+02 0.15814942053E+02 0.16030964105E+02
 0.16116492039E+02 0.16030964105E+02 0.15814942053E+02 0.15528962060E+02 0.15201179957E+02
 0.14916009357E+02 0.14789520149E+02 0.14942837939E+02 0.15464791416E+02 0.16360373095E+02
 0.17518202131E+02 0.19229445576E+02 0.22333004587E+02 0.26822143730E+02 0.31737800885E+02
 0.35592766888E+02 0.21970272842E+02 0.21469738006E+02 0.20199717370E+02 0.18706561881E+02
 0.17494741238E+02 0.16666195272E+02 0.15968054218E+02 0.15464791416E+02 0.15281164402E+02
 0.15464791416E+02 0.15968054218E+02 0.16666195272E+02 0.17494741238E+02 0.18706561881E+02
 0.20199717370E+02 0.21469738006E+02 0.21970272842E+02 0.21469738006E+02 0.20199717370E+02
 0.18706561881E+02 0.17494741238E+02 0.16666195272E+02 0.15968054218E+02 0.15464791416E+02
 0.15281164402E+02 0.15464791416E+02 0.15968054218E+02 0.16666195272E+02 0.17494741238E+02
 0.18706561881E+02 0.20199717370E+02 0.21469738006E+02 0.16116492039E+02 0.16030964105E+02
 0.15814942053E+02 0.15528962060E+02 0.15201179957E+02 0.14916009357E+02 0.14789520149E+02
 0.14942837939E+02 0.15464791416E+02 0.16360373095E+02 0.17518202131E+02 0.19229445576E+02
 0.22333004587E+02 0.26822143730E+02 0.31737800885E+02 0.35592766888E+02 0.37055231390E+02
 0.35592766888E+02 0.31737800885E+02 0.26822143730E+02 0.22333004587E+02 0.19229445576E+02
 0.17518202131E+02 0.16360373095E+02 0.15464791416E+02 0.14942837939E+02 0.14789520149E+02
 0.14916009357E+02 0.15201179957E+02 0.15528962060E+02 0.15814942053E+02 0.16030964105E+02
 0.13564826374E+02 0.13554774870E+02 0.13526168592E+02 0.13494885897E+02 0.13509377374E+02
 0.13654520975E+02 0.14042008820E+02 0.14789520149E+02 0.15968054218E+02 0.17518202131E+02
 0.19964948655E+02 0.24985753856E+02 0.33250788281E+02 0.43884757323E+02 0.54671761501E+02
 0.62769584508E+02 0.65781822535E+02 0.62769584508E+02 0.54671761501E+02 0.43884757323E+02
 0.33250788281E+02 0.24985753856E+02 0.19964948655E+02 0.17518202131E+02 0.15968054218E+02
 0.14789520149E+02 0.14042008820E+02 0.13654520975E+02 0.13509377374E+02 0.13494885897E+02
 0.13526168592E+02 0.13554774870E+02 0.11790128516E+02 0.11824236396E+02 0.11921899193E+02
 0.12087712141E+02 0.12365613062E+02 0.12846292561E+02 0.13654520975E+02 0.14916009357E+02
 0.16666195272E+02 0.19229445576E+02 0.24985753856E+02 0.35915141588E+02 0.52095257262E+02
 0.71502351853E+02 0.90380330672E+02 0.10422990728E+03 0.10933014197E+03 0.10422990728E+03
 0.90380330672E+02 0.71502351853E+02 0.52095257262E+02 0.35915141588E+02 0.24985753856E+02
 0.19229445576E+02 0.16666195272E+02 0.14916009357E+02 0.13654520975E+02 0.12846292561E+02
 0.12365613062E+02 0.12087712141E+02 0.11921899193E+02 0.11824236396E+02 0.10667326060E+02
 0.10728843037E+02 0.10903985796E+02 0.11191688603E+02 0.11642219732E+02 0.12365613062E+02
 0.13509377374E+02 0.15201179957E+02 0.17494741238E+02 0.22333004587E+02 0.33250788281E+02
 0.52095257262E+02 0.78195072347E+02 0.10827411866E+03 0.13689383721E+03 0.15766084810E+03
 0.16527509273E+03 0.15766084810E+03 0.13689383721E+03 0.10827411866E+03 0.78195072347E+02
 0.52095257262E+02 0.33250788281E+02 0.22333004587E+02 0.17494741238E+02 0.15201179957E+02
 0.13509377374E+02 0.12365613062E+02 0.11642219732E+02 0.11191688603E+02 0.10903985796E+02
 0.10728843037E+02 0.99936371971E+01 0.10069052473E+02 0.10283302246E+02 0.10635808443E+02
 0.11191688603E+02 0.12087712141E+02 0.13494885897E+02 0.15528962060E+02 0.18706561881E+02
 0.26822143730E+02 0.43884757323E+02 0.71502351853E+02 0.10827411866E+03 0.14975188216E+03
 0.18882337510E+03 0.21706869543E+03 0.22741470398E+03 0.21706869543E+03 0.18882337510E+03
 0.14975188216E+03 0.10827411866E+03 0.71502351853E+02 0.43884757323E+02 0.26822143730E+02
 0.18706561881E+02 0.15528962060E+02 0.13494885897E+02 0.12087712141E+02 0.11191688603E+02
 0.10635808443E+02 0.10283302246E+02 0.10069052473E+02 0.95827982290E+01 0.96647773554E+01
 0.98974295386E+01 0.10283302246E+02 0.10903985796E+02 0.11921899193E+02 0.13526168592E+02
 0.15814942053E+02 0.20199717370E+02 0.31737800885E+02 0.54671761501E+02 0.90380330672E+02
 0.13689383721E+03 0.18882337510E+03 0.23758177879E+03 0.27282962229E+03 0.28574871593E+03
 0.27282962229E+03 0.23758177879E+03 0.18882337510E+03 0.13689383721E+03 0.90380330672E+02
 0.54671761501E+02 0.31737800885E+02 0.20199717370E+02 0.15814942053E+02 0.13526168592E+02
 0.11921899193E+02 0.10903985796E+02 0.10283302246E+02 0.98974295386E+01 0.96647773554E+01
 0.93370837455E+01 0.94225100636E+01 0.96647773554E+01 0.10069052473E+02 0.10728843037E+02
 0.11824236396E+02 0.13554774870E+02 0.16030964105E+02 0.21469738006E+02 0.35592766888E+02
 0.62769584508E+02 0.10422990728E+03 0.15766084810E+03 0.21706869543E+03 0.27282962229E+03
 0.31318259953E+03 0.32798616990E+03 0.31318259953E+03 0.27282962229E+03 0.21706869543E+03
 0.15766084810E+03 0.10422990728E+03 0.62769584508E+02 0.35592766888E+02 0.21469738006E+02
 0.16030964105E+02 0.13554774870E+02 0.11824236396E+02 0.10728843037E+02 0.10069052473E+02
 0.96647773554E+01 0.94225100636E+01 0.92504176303E+01 0.93370837455E+01 0.95827982290E+01
 0.99936371971E+01 0.10667326060E+02 0.11790128516E+02 0.13564826374E+02 0.16116492039E+02
 0.21970272842E+02 0.37055231390E+02 0.65781822535E+02 0.10933014197E+03 0.16527509273E+03
 0.22741470398E+03 0.28574871593E+03 0.32798616990E+03 0.34348702805E+03 0.32798616990E+03
 0.28574871593E+03 0.22741470398E+03 0.16527509273E+03 0.10933014197E+03 0.65781822535E+02
 0.37055231390E+02 0.21970272842E+02 0.16116492039E+02 0.13564826374E+02 0.11790128516E+02
 0.10667326060E+02 0.99936371971E+01 0.95827982290E+01 0.93370837455E+01 0.93370837455E+01
 0.94225100636E+01 0.96647773554E+01 0.10069052473E+02 0.10728843037E+02 0.11824236396E+02
 0.13554774870E+02 0.16030964105E+02 0.21469738006E+02 0.35592766888E+02 0.62769584508E+02
 0.10422990728E+03 0.15766084810E+03 0.21706869543E+03 0.27282962229E+03 0.31318259953E+03
 0.32798616990E+03 0.31318259953E+03 0.27282962229E+03 0.21706869543E+03 0.15766084810E+03
 0.10422990728E+03 0.62769584508E+02 0.35592766888E+02 0.21469738006E+02 0.16030964105E+02
 0.13554774870E+02 0.11824236396E+02 0.10728843037E+02 0.10069052473E+02 0.96647773554E+01
 0.94225100636E+01 0.95827982290E+01 0.96647773554E+01 0.98974295386E+01 0.10283302246E+02
 0.10903985796E+02 0.11921899193E+02 0.13526168592E+02 0.15814942053E+02 0.20199717370E+02
 0.31737800885E+02 0.54671761501E+02 0.90380330672E+02 0.13689383721E+03 0.18882337510E+03
 0.23758177879E+03 0.27282962229E+03 0.28574871593E+03 0.27282962229E+03 0.23758177879E+03
 0.18882337510E+03 0.13689383721E+03 0.90380330672E+02 0.54671761501E+02 0.31737800885E+02
 0.20199717370E+02 0.15814942053E+02 0.13526168592E+02 0.11921899193E+02 0.10903985796E+02
 0.10283302246E+02 0.98974295386E+01 0.96647773554E+01 0.99936371971E+01 0.10069052473E+02
 0.10283302246E+02 0.10635808443E+02 0.11191688603E+02 0.12087712141E+02 0.13494885897E+02
 0.15528962060E+02 0.18706561881E+02 0.26822143730E+02 0.43884757323E+02 0.71502351853E+02
 0.10827411866E+03 0.14975188216E+03 0.18882337510E+03 0.21706869543E+03 0.22741470398E+03
 0.21706869543E+03 0.18882337510E+03 0.14975188216E+03 0.10827411866E+03 0.71502351853E+02
 0.43884757323E+02 0.26822143730E+02 0.18706561881E+02 0.15528962060E+02 0.13494885897E+02
 0.12087712141E+02 0.11191688603E+02 0.10635808443E+02 0.10283302246E+02 0.10069052473E+02
 0.10667326060E+02 0.10728843037E+02 0.10903985796E+02 0.11191688603E+02 0.11642219732E+02
 0.12365613062E+02 0.13509377374E+02 0.15201179957E+02 0.17494741238E+02 0.22333004587E+02
 0.33250788281E+02 0.52095257262E+02 0.78195072347E+02 0.10827411866E+03 0.13689383721E+03
 0.15766084810E+03 0.16527509273E+03 0.15766084810E+03 0.13689383721E+03 0.10827411866E+03
 0.78195072347E+02 0.52095257262E+02 0.33250788281E+02 0.22333004587E+02 0.17494741238E+02
 0.15201179957E+02 0.13509377374E+02 0.12365613062E+02 0.11642219732E+02 0.11191688603E+02
 0.10903985796E+02 0.10728843037E+02 0.11790128516E+02 0.11824236396E+02 0.11921899193E+02
 0.12087712141E+02 0.12365613062E+02 0.12846292561E+02 0.13654520975E+02 0.14916009357E+02
 0.16666195272E+02 0.19229445576E+02 0.24985753856E+02 0.35915141588E+02 0.52095257262E+02
 0.71502351853E+02 0.90380330672E+02 0.10422990728E+03 0.10933014197E+03 0.10422990728E+03
 0.90380330672E+02 0.71502351853E+02 0.52095257262E+02 0.35915141588E+02 0.24985753856E+02
 0.19229445576E+02 0.16666195272E+02 0.14916009357E+02 0.13654520975E+02 0.12846292561E+02
 0.12365613062E+02 0.12087712141E+02 0.11921899193E+02 0.11824236396E+02 0.13564826374E+02
 0.13554774870E+02 0.13526168592E+02 0.13494885897E+02 0.13509377374E+02 0.13654520975E+02
 0.14042008820E+02 0.14789520149E+02 0.15968054218E+02 0.17518202131E+02 0.19964948655E+02
 0.24985753856E+02 0.33250788281E+02 0.43884757323E+02 0.54671761501E+02 0.62769584508E+02
 0.65781822535E+02 0.62769584508E+02 0.54671761501E+02 0.43884757323E+02 0.33250788281E+02
 0.24985753856E+02 0.19964948655E+02 0.17518202131E+02 0.15968054218E+02 0.14789520149E+02
 0.14042008820E+02 0.13654520975E+02 0.13509377374E+02 0.13494885897E+02 0.13526168592E+02
 0.13554774870E+02 0.16116492039E+02 0.16030964105E+02 0.15814942053E+02 0.15528962060E+02
 0.15201179957E+02 0.14916009357E+02 0.14789520149E+02 0.14942837939E+02 0.15464791416E+02
 0.16360373095E+02 0.17518202131E+02 0.19229445576E+02 0.22333004587E+02 0.26822143730E+02
 0.31737800885E+02 0.35592766888E+02 0.37055231390E+02 0.35592766888E+02 0.31737800885E+02
 0.26822143730E+02 0.22333004587E+02 0.19229445576E+02 0.17518202131E+02 0.16360373095E+02
 0.15464791416E+02 0.14942837939E+02 0.14789520149E+02 0.14916009357E+02 0.15201179957E+02
 0.15528962060E+02 0.15814942053E+02 0.16030964105E+02 0.21970272842E+02 0.21469738006E+02
 0.20199717370E+02 0.18706561881E+02 0.17494741238E+02 0.16666195272E+02 0.15968054218E+02
 0.15464791416E+02 0.15281164402E+02 0.15464791416E+02 0.15968054218E+02 0.16666195272E+02
 0.17494741238E+02 0.18706561881E+02 0.20199717370E+02 0.21469738006E+02 0.21970272842E+02
 0.21469738006E+02 0.20199717370E+02 0.18706561881E+02 0.17494741238E+02 0.16666195272E+02
 0.15968054218E+02 0.15464791416E+02 0.15281164402E+02 0.15464791416E+02 0.15968054218E+02
 0.16666195272E+02 0.17494741238E+02 0.18706561881E+02 0.20199717370E+02 0.21469738006E+02
 0.37055231390E+02 0.35592766888E+02 0.31737800885E+02 0.26822143730E+02 0.22333004587E+02
 0.19229445576E+02 0.17518202131E+02 0.16360373095E+02 0.15464791416E+02 0.14942837939E+02
 0.14789520149E+02 0.14916009357E+02 0.15201179957E+02 0.15528962060E+02 0.15814942053E+02
 0.16030964105E+02 0.16116492039E+02 0.16030964105E+02 0.15814942053E+02 0.15528962060E+02
 0.15201179957E+02 0.14916009357E+02 0.14789520149E+02 0.14942837939E+02 0.15464791416E+02
 0.16360373095E+02 0.17518202131E+02 0.19229445576E+02 0.22333004587E+02 0.26822143730E+02
 0.31737800885E+02 0.35592766888E+02 0.65781822535E+02 0.62769584508E+02 0.54671761501E+02
 0.43884757323E+02 0.33250788281E+02 0.24985753856E+02 0.19964948655E+02 0.17518202131E+02
 0.15968054218E+02 0.14789520149E+02 0.14042008820E+02 0.13654520975E+02 0.13509377374E+02
 0.13494885897E+02 0.13526168592E+02 0.13554774870E+02 0.13564826374E+02 0.13554774870E+02
 0.13526168592E+02 0.13494885897E+02 0.13509377374E+02 0.13654520975E+02 0.14042008820E+02
 0.14789520149E+02 0.15968054218E+02 0.17518202131E+02 0.19964948655E+02 0.24985753856E+02
 0.33250788281E+02 0.43884757323E+02 0.54671761501E+02 0.62769584508E+02 0.10933014197E+03
 0.10422990728E+03 0.90380330672E+02 0.71502351853E+02 0.52095257262E+02 0.35915141588E+02
 0.24985753856E+02 0.19229445576E+02 0.16666195272E+02 0.14916009357E+02 0.13654520975E+02
 0.12846292561E+02 0.12365613062E+02 0.12087712141E+02 0.11921899193E+02 0.11824236396E+02
 0.11790128516E+02 0.11824236396E+02 0.11921899193E+02 0.12087712141E+02 0.12365613062E+02
 0.12846292561E+02 0.13654520975E+02 0.14916009357E+02 0.16666195272E+02 0.19229445576E+02
 0.24985753856E+02 0.35915141588E+02 0.52095257262E+02 0.71502351853E+02 0.90380330672E+02
 0.10422990728E+03 0.16527509273E+03 0.15766084810E+03 0.13689383721E+03 0.10827411866E+03
 0.78195072347E+02 0.52095257262E+02 0.33250788281E+02 0.22333004587E+02 0.17494741238E+02
 0.15201179957E+02 0.13509377374E+02 0.12365613062E+02 0.11642219732E+02 0.11191688603E+02
 0.10903985796E+02 0.10728843037E+02 0.10667326060E+02 0.10728843037E+02 0.10903985796E+02
 0.11191688603E+02 0.11642219732E+02 0.12365613062E+02 0.13509377374E+02 0.15201179957E+02
 0.17494741238E+02 0.22333004587E+02 0.33250788281E+02 0.52095257262E+02 0.78195072347E+02
 0.10827411866E+03 0.13689383721E+03 0.15766084810E+03 0.22741470398E+03 0.21706869543E+03
 0.18882337510E+03 0.14975188216E+03 0.10827411866E+03 0.71502351853E+02 0.43884757323E+02
 0.26822143730E+02 0.18706561881E+02 0.15528962060E+02 0.13494885897E+02 0.12087712141E+02
 0.11191688603E+02 0.10635808443E+02 0.10283302246E+02 0.10069052473E+02 0.99936371971E+01
 0.10069052473E+02 0.10283302246E+02 0.10635808443E+02 0.11191688603E+02 0.12087712141E+02
 0.13494885897E+02 0.15528962060E+02 0.18706561881E+02 0.26822143730E+02 0.43884757323E+02
 0.71502351853E+02 0.10827411866E+03 0.14975188216E+03 0.18882337510E+03 0.21706869543E+03
 0.28574871593E+03 0.27282962229E+03 0.23758177879E+03 0.18882337510E+03 0.13689383721E+03
 0.90380330672E+02 0.54671761501E+02 0.31737800885E+02 0.20199717370E+02 0.15814942053E+02
 0.13526168592E+02 0.11921899193E+02 0.10903985796E+02 0.10283302246E+02 0.98974295386E+01
 0.96647773554E+01 0.95827982290E+01 0.96647773554E+01 0.98974295386E+01 0.10283302246E+02
 0.10903985796E+02 0.11921899193E+02 0.13526168592E+02 0.15814942053E+02 0.20199717370E+02
 0.31737800885E+02 0.54671761501E+02 0.90380330672E+02 0.13689383721E+03 0.18882337510E+03
 0.23758177879E+03 0.27282962229E+03 0.32798616990E+03 0.31318259953E+03 0.27282962229E+03
 0.21706869543E+03 0.15766084810E+03 0.10422990728E+03 0.62769584508E+02 0.35592766888E+02
 0.21469738006E+02 0.16030964105E+02 0.13554774870E+02 0.11824236396E+02 0.10728843037E+02
 0.10069052473E+02 0.96647773554E+01 0.94225100636E+01 0.93370837455E+01 0.94225100636E+01
 0.96647773554E+01 0.10069052473E+02 0.10728843037E+02 0.11824236396E+02 0.13554774870E+02
 0.16030964105E+02 0.21469738006E+02 0.35592766888E+02 0.62769584508E+02 0.10422990728E+03
 0.15766084810E+03 0.21706869543E+03 0.27282962229E+03 0.31318259953E+03 0.32798616990E+03
 0.31318259953E+03 0.27282962229E+03 0.21706869543E+03 0.15766084810E+03 0.10422990728E+03
 0.62769584508E+02 0.35592766888E+02 0.21469738006E+02 0.16030964105E+02 0.13554774870E+02
 0.11824236396E+02 0.10728843037E+02 0.10069052473E+02 0.96647773554E+01 0.94225100636E+01
 0.93370837455E+01 0.94225100636E+01 0.96647773554E+01 0.10069052473E+02 0.10728843037E+02
 0.11824236396E+02 0.13554774870E+02 0.16030964105E+02 0.21469738006E+02 0.35592766888E+02
 0.62769584508E+02 0.10422990728E+03 0.15766084810E+03 0.21706869543E+03 0.27282962229E+03
 0.31318259953E+03 0.31318259953E+03 0.29904252775E+03 0.26048472324E+03 0.20718015277E+03
 0.15038719456E+03 0.99368121540E+02 0.59911521355E+02 0.34217148015E+02 0.21006018679E+02
 0.15950575649E+02 0.13543510672E+02 0.11856911677E+02 0.10788772770E+02 0.10142938360E+02
 0.97453730841E+01 0.95066617131E+01 0.94225100636E+01 0.95066617131E+01 0.97453730841E+01
 0.10142938360E+02 0.10788772770E+02 0.11856911677E+02 0.13543510672E+02 0.15950575649E+02
 0.21006018679E+02 0.34217148015E+02 0.59911521355E+02 0.99368121540E+02 0.15038719456E+03
 0.20718015277E+03 0.26048472324E+03 0.29904252775E+03 0.27282962229E+03 0.26048472324E+03
 0.22679542511E+03 0.18018241078E+03 0.13055341964E+03 0.86173367836E+02 0.52235740094E+02
 0.30596895424E+02 0.19831773673E+02 0.15743441014E+02 0.13511747600E+02 0.11950590787E+02
 0.10959433437E+02 0.10352867028E+02 0.99741381141E+01 0.97453730841E+01 0.96647773554E+01
 0.97453730841E+01 0.99741381141E+01 0.10352867028E+02 0.10959433437E+02 0.11950590787E+02
 0.13511747600E+02 0.15743441014E+02 0.19831773673E+02 0.30596895424E+02 0.52235740094E+02
 0.86173367836E+02 0.13055341964E+03 0.18018241078E+03 0.22679542511E+03 0.26048472324E+03
 0.21706869543E+03 0.20718015277E+03 0.18018241078E+03 0.14284265549E+03 0.10323881122E+03
 0.68212661485E+02 0.42034057204E+02 0.25996709260E+02 0.18455471108E+02 0.15456291100E+02
 0.13475971258E+02 0.12109878629E+02 0.11239466386E+02 0.10697712344E+02 0.10352867028E+02
 0.10142938360E+02 0.10069052473E+02 0.10142938360E+02 0.10352867028E+02 0.10697712344E+02
 0.11239466386E+02 0.12109878629E+02 0.13475971258E+02 0.15456291100E+02 0.18455471108E+02
 0.25996709260E+02 0.42034057204E+02 0.68212661485E+02 0.10323881122E+03 0.14284265549E+03
 0.18018241078E+03 0.20718015277E+03 0.15766084810E+03 0.15038719456E+03 0.13055341964E+03
 0.10323881122E+03 0.74580087150E+02 0.49799014333E+02 0.32018744315E+02 0.21820198279E+02
 0.17335602126E+02 0.15125273937E+02 0.13483961547E+02 0.12377046386E+02 0.11676723494E+02
 0.11239466386E+02 0.10959433437E+02 0.10788772770E+02 0.10728843037E+02 0.10788772770E+02
 0.10959433437E+02 0.11239466386E+02 0.11676723494E+02 0.12377046386E+02 0.13483961547E+02
 0.15125273937E+02 0.17335602126E+02 0.21820198279E+02 0.32018744315E+02 0.49799014333E+02
 0.74580087150E+02 0.10323881122E+03 0.13055341964E+03 0.15038719456E+03 0.10422990728E+03
 0.99368121540E+02 0.86173367836E+02 0.68212661485E+02 0.49799014333E+02 0.34522787859E+02
 0.24287909710E+02 0.18952537852E+02 0.16537885361E+02 0.14837446155E+02 0.13618267090E+02
 0.12839482426E+02 0.12377046386E+02 0.12109878629E+02 0.11950590787E+02 0.11856911677E+02
 0.11824236396E+02 0.11856911677E+02 0.11950590787E+02 0.12109878629E+02 0.12377046386E+02
 0.12839482426E+02 0.13618267090E+02 0.14837446155E+02 0.16537885361E+02 0.18952537852E+02
 0.24287909710E+02 0.34522787859E+02 0.49799014333E+02 0.68212661485E+02 0.86173367836E+02
 0.99368121540E+02 0.62769584508E+02 0.59911521355E+02 0.52235740094E+02 0.42034057204E+02
 0.32018744315E+02 0.24287909710E+02 0.19634755782E+02 0.17355003820E+02 0.15846454313E+02
 0.14706009826E+02 0.13987294222E+02 0.13618267090E+02 0.13483961547E+02 0.13475971258E+02
 0.13511747600E+02 0.13543510672E+02 0.13554774870E+02 0.13543510672E+02 0.13511747600E+02
 0.13475971258E+02 0.13483961547E+02 0.13618267090E+02 0.13987294222E+02 0.14706009826E+02
 0.15846454313E+02 0.17355003820E+02 0.19634755782E+02 0.24287909710E+02 0.32018744315E+02
 0.42034057204E+02 0.52235740094E+02 0.59911521355E+02 0.35592766888E+02 0.34217148015E+02
 0.30596895424E+02 0.25996709260E+02 0.21820198279E+02 0.18952537852E+02 0.17355003820E+02
 0.16222065102E+02 0.15351163572E+02 0.14848342817E+02 0.14706009826E+02 0.14837446155E+02
 0.15125273937E+02 0.15456291100E+02 0.15743441014E+02 0.15950575649E+02 0.16030964105E+02
 0.15950575649E+02 0.15743441014E+02 0.15456291100E+02 0.15125273937E+02 0.14837446155E+02
 0.14706009826E+02 0.14848342817E+02 0.15351163572E+02 0.16222065102E+02 0.17355003820E+02
 0.18952537852E+02 0.21820198279E+02 0.25996709260E+02 0.30596895424E+02 0.34217148015E+02
 0.21469738006E+02 0.21006018679E+02 0.19831773673E+02 0.18455471108E+02 0.17335602126E+02
 0.16537885361E+02 0.15846454313E+02 0.15351163572E+02 0.15171003312E+02 0.15351163572E+02
 0.15846454313E+02 0.16537885361E+02 0.17335602126E+02 0.18455471108E+02 0.19831773673E+02
 0.21006018679E+02 0.21469738006E+02 0.21006018679E+02 0.19831773673E+02 0.18455471108E+02
 0.17335602126E+02 0.16537885361E+02 0.15846454313E+02 0.15351163572E+02 0.15171003312E+02
 0.15351163572E+02 0.15846454313E+02 0.16537885361E+02 0.17335602126E+02 0.18455471108E+02
 0.19831773673E+02 0.21006018679E+02 0.16030964105E+02 0.15950575649E+02 0.15743441014E+02
 0.15456291100E+02 0.15125273937E+02 0.14837446155E+02 0.14706009826E+02 0.14848342817E+02
 0.15351163572E+02 0.16222065102E+02 0.17355003820E+02 0.18952537852E+02 0.21820198279E+02
 0.25996709260E+02 0.30596895424E+02 0.34217148015E+02 0.35592766888E+02 0.34217148015E+02
 0.30596895424E+02 0.25996709260E+02 0.21820198279E+02 0.18952537852E+02 0.17355003820E+02
 0.16222065102E+02 0.15351163572E+02 0.14848342817E+02 0.14706009826E+02 0.14837446155E+02
 0.15125273937E+02 0.15456291100E+02 0.15743441014E+02 0.15950575649E+02 0.13554774870E+02
 0.13543510672E+02 0.13511747600E+02 0.13475971258E+02 0.13483961547E+02 0.13618267090E+02
 0.13987294222E+02 0.14706009826E+02 0.15846454313E+02 0.17355003820E+02 0.19634755782E+02
 0.24287909710E+02 0.32018744315E+02 0.42034057204E+02 0.52235740094E+02 0.59911521355E+02
 0.62769584508E+02 0.59911521355E+02 0.52235740094E+02 0.42034057204E+02 0.32018744315E+02
 0.24287909710E+02 0.19634755782E+02 0.17355003820E+02 0.15846454313E+02 0.14706009826E+02
 0.13987294222E+02 0.13618267090E+02 0.13483961547E+02 0.13475971258E+02 0.13511747600E+02
 0.13543510672E+02 0.11824236396E+02 0.11856911677E+02 0.11950590787E+02 0.12109878629E+02
 0.12377046386E+02 0.12839482426E+02 0.13618267090E+02 0.14837446155E+02 0.16537885361E+02
 0.18952537852E+02 0.24287909710E+02 0.34522787859E+02 0.49799014333E+02 0.68212661485E+02
 0.86173367836E+02 0.99368121540E+02 0.10422990728E+03 0.99368121540E+02 0.86173367836E+02
 0.68212661485E+02 0.49799014333E+02 0.34522787859E+02 0.24287909710E+02 0.18952537852E+02
 0.16537885361E+02 0.14837446155E+02 0.13618267090E+02 0.12839482426E+02 0.12377046386E+02
 0.12109878629E+02 0.11950590787E+02 0.11856911677E+02 0.10728843037E+02 0.10788772770E+02
 0.10959433437E+02 0.11239466386E+02 0.11676723494E+02 0.12377046386E+02 0.13483961547E+02
 0.15125273937E+02 0.17335602126E+02 0.21820198279E+02 0.32018744315E+02 0.49799014333E+02
 0.74580087150E+02 0.10323881122E+03 0.13055341964E+03 0.15038719456E+03 0.15766084810E+03
 0.15038719456E+03 0.13055341964E+03 0.10323881122E+03 0.74580087150E+02 0.49799014333E+02
 0.32018744315E+02 0.21820198279E+02 0.17335602126E+02 0.15125273937E+02 0.13483961547E+02
 0.12377046386E+02 0.11676723494E+02 0.11239466386E+02 0.10959433437E+02 0.10788772770E+02
 0.10069052473E+02 0.10142938360E+02 0.10352867028E+02 0.10697712344E+02 0.11239466386E+02
 0.12109878629E+02 0.13475971258E+02 0.15456291100E+02 0.18455471108E+02 0.25996709260E+02
 0.42034057204E+02 0.68212661485E+02 0.10323881122E+03 0.14284265549E+03 0.18018241078E+03
 0.20718015277E+03 0.21706869543E+03 0.20718015277E+03 0.18018241078E+03 0.14284265549E+03
 0.10323881122E+03 0.68212661485E+02 0.42034057204E+02 0.25996709260E+02 0.18455471108E+02
 0.15456291100E+02 0.13475971258E+02 0.12109878629E+02 0.11239466386E+02 0.10697712344E+02
 0.10352867028E+02 0.10142938360E+02 0.96647773554E+01 0.97453730841E+01 0.99741381141E+01
 0.10352867028E+02 0.10959433437E+02 0.11950590787E+02 0.13511747600E+02 0.15743441014E+02
 0.19831773673E+02 0.30596895424E+02 0.52235740094E+02 0.86173367836E+02 0.13055341964E+03
 0.18018241078E+03 0.22679542511E+03 0.26048472324E+03 0.27282962229E+03 0.26048472324E+03
 0.22679542511E+03 0.18018241078E+03 0.13055341964E+03 0.86173367836E+02 0.52235740094E+02
 0.30596895424E+02 0.19831773673E+02 0.15743441014E+02 0.13511747600E+02 0.11950590787E+02
 0.10959433437E+02 0.10352867028E+02 0.99741381141E+01 0.97453730841E+01 0.94225100636E+01
 0.95066617131E+01 0.97453730841E+01 0.10142938360E+02 0.10788772770E+02 0.11856911677E+02
 0.13543510672E+02 0.15950575649E+02 0.21006018679E+02 0.34217148015E+02 0.59911521355E+02
 0.99368121540E+02 0.15038719456E+03 0.20718015277E+03 0.26048472324E+03 0.29904252775E+03
 0.31318259953E+03 0.29904252775E+03 0.26048472324E+03 0.20718015277E+03 0.15038719456E+03
 0.99368121540E+02 0.59911521355E+02 0.34217148015E+02 0.21006018679E+02 0.15950575649E+02
 0.13543510672E+02 0.11856911677E+02 0.10788772770E+02 0.10142938360E+02 0.97453730841E+01
 0.95066617131E+01 0.93370837455E+01 0.94225100636E+01 0.96647773554E+01 0.10069052473E+02
 0.10728843037E+02 0.11824236396E+02 0.13554774870E+02 0.16030964105E+02 0.21469738006E+02
 0.35592766888E+02 0.62769584508E+02 0.10422990728E+03 0.15766084810E+03 0.21706869543E+03
 0.27282962229E+03 0.31318259953E+03 0.32798616990E+03 0.31318259953E+03 0.27282962229E+03
 0.21706869543E+03 0.15766084810E+03 0.10422990728E+03 0.62769584508E+02 0.35592766888E+02
 0.21469738006E+02 0.16030964105E+02 0.13554774870E+02 0.11824236396E+02 0.10728843037E+02
 0.10069052473E+02 0.96647773554E+01 0.94225100636E+01 0.94225100636E+01 0.95066617131E+01
 0.97453730841E+01 0.10142938360E+02 0.10788772770E+02 0.11856911677E+02 0.13543510672E+02
 0.15950575649E+02 0.21006018679E+02 0.34217148015E+02 0.59911521355E+02 0.99368121540E+02
 0.15038719456E+03 0.20718015277E+03 0.26048472324E+03 0.29904252775E+03 0.31318259953E+03
 0.29904252775E+03 0.26048472324E+03 0.20718015277E+03 0.15038719456E+03 0.99368121540E+02
 0.59911521355E+02 0.34217148015E+02 0.21006018679E+02 0.15950575649E+02 0.13543510672E+02
 0.11856911677E+02 0.10788772770E+02 0.10142938360E+02 0.97453730841E+01 0.95066617131E+01
 0.96647773554E+01 0.97453730841E+01 0.99741381141E+01 0.10352867028E+02 0.10959433437E+02
 0.11950590787E+02 0.13511747600E+02 0.15743441014E+02 0.19831773673E+02 0.30596895424E+02
 0.52235740094E+02 0.86173367836E+02 0.13055341964E+03 0.18018241078E+03 0.22679542511E+03
 0.26048472324E+03 0.27282962229E+03 0.26048472324E+03 0.22679542511E+03 0.18018241078E+03
 0.13055341964E+03 0.86173367836E+02 0.52235740094E+02 0.30596895424E+02 0.19831773673E+02