   4   4   0   0
  0.1022208E+02  0.3445083E-09  0.3445083E-09  0.3445083E-09  0.5000000E-15
  1.000000000000000E-004
  CAR 
 unknown system                          
     39.00382315     -4.02756859  301      6.80242677      1.00000000
     -4.028  0.0000E+00  0.0000E+00
     -3.884  0.0000E+00  0.0000E+00
     -3.741 -0.6319E-33 -0.9064E-34
     -3.597 -0.7502E-28 -0.1076E-28
     -3.454 -0.3157E-23 -0.4529E-24
     -3.310 -0.4702E-19 -0.6745E-20
     -3.167 -0.2397E-15 -0.3439E-16
     -3.024 -0.4390E-12 -0.6300E-13
     -2.880 -0.2801E-09 -0.4024E-10
     -2.737 -0.6158E-07 -0.8873E-08
     -2.593 -0.4580E-05 -0.6659E-06
     -2.450 -0.1120E-03 -0.1673E-04
     -2.306 -0.8515E-03 -0.1389E-03
     -2.163 -0.1368E-02 -0.3351E-03
     -2.019  0.8317E-02  0.8578E-03
     -1.876  0.5104E-01  0.8179E-02
     -1.733  0.1262E+00  0.2628E-01
     -1.589  0.1691E+00  0.5054E-01
     -1.446  0.1303E+00  0.6923E-01
     -1.302  0.1287E+00  0.8768E-01
     -1.159  0.2909E+00  0.1294E+00
     -1.015  0.3985E+00  0.1866E+00
     -0.872  0.2265E+00  0.2191E+00
     -0.728  0.9535E-01  0.2327E+00
     -0.585  0.2878E+00  0.2740E+00
     -0.442  0.4697E+00  0.3414E+00
     -0.298  0.4688E+00  0.4086E+00
     -0.155  0.3710E+00  0.4618E+00
     -0.011  0.2680E+00  0.5003E+00
      0.132  0.5238E+00  0.5754E+00
      0.276  0.6094E+00  0.6628E+00
      0.419  0.2679E+00  0.7013E+00
      0.562  0.4440E+00  0.7649E+00
      0.706  0.7164E+00  0.8677E+00
      0.849  0.6457E+00  0.9603E+00
      0.993  0.7432E+00  0.1067E+01
      1.136  0.9670E+00  0.1206E+01
      1.280  0.5543E+00  0.1285E+01
      1.423  0.4469E+00  0.1349E+01
      1.567  0.1088E+01  0.1505E+01
      1.710  0.1639E+01  0.1740E+01
      1.853  0.1491E+01  0.1954E+01
      1.997  0.2346E+01  0.2291E+01
      2.140  0.3396E+01  0.2778E+01
      2.284  0.3904E+01  0.3338E+01
      2.427  0.4501E+01  0.3984E+01
      2.571  0.3955E+01  0.4551E+01
      2.714  0.3833E+01  0.5101E+01
      2.857  0.5587E+01  0.5902E+01
      3.001  0.6424E+01  0.6824E+01
      3.144  0.5644E+01  0.7633E+01
      3.288  0.5732E+01  0.8455E+01
      3.431  0.6321E+01  0.9362E+01
      3.575  0.5274E+01  0.1012E+02
      3.718  0.5071E+01  0.1085E+02
      3.862  0.5395E+01  0.1162E+02
      4.005  0.4708E+01  0.1230E+02
      4.148  0.5095E+01  0.1303E+02
      4.292  0.4612E+01  0.1369E+02
      4.435  0.5412E+01  0.1446E+02
      4.579  0.7625E+01  0.1556E+02
      4.722  0.7232E+01  0.1659E+02
      4.866  0.6075E+01  0.1747E+02
      5.009  0.7030E+01  0.1847E+02
      5.152  0.9031E+01  0.1977E+02
      5.296  0.9213E+01  0.2109E+02
      5.439  0.9292E+01  0.2242E+02
      5.583  0.8695E+01  0.2367E+02
      5.726  0.7428E+01  0.2474E+02
      5.870  0.6696E+01  0.2570E+02
      6.013  0.5254E+01  0.2645E+02
      6.157  0.5422E+01  0.2723E+02
      6.300  0.6570E+01  0.2817E+02
      6.443  0.7179E+01  0.2920E+02
      6.587  0.7706E+01  0.3031E+02
      6.730  0.8119E+01  0.3147E+02
      6.874  0.6838E+01  0.3245E+02
      7.017  0.5694E+01  0.3327E+02
      7.161  0.6841E+01  0.3425E+02
      7.304  0.7196E+01  0.3528E+02
      7.447  0.6475E+01  0.3621E+02
      7.591  0.8720E+01  0.3746E+02
      7.734  0.1133E+02  0.3909E+02
      7.878  0.1053E+02  0.4060E+02
      8.021  0.8085E+01  0.4176E+02
      8.165  0.4138E+01  0.4235E+02
      8.308  0.6973E+00  0.4245E+02
      8.452  0.2759E+00  0.4249E+02
      8.595  0.9837E+00  0.4263E+02
      8.738  0.1579E+01  0.4286E+02
      8.882  0.2235E+01  0.4318E+02
      9.025  0.1575E+01  0.4340E+02
      9.169  0.3214E+00  0.4345E+02
      9.312  0.6974E+00  0.4355E+02
      9.456  0.1202E+01  0.4372E+02
      9.599  0.9761E+00  0.4386E+02
      9.742  0.9237E+00  0.4400E+02
      9.886  0.1248E+01  0.4417E+02
     10.029  0.1360E+01  0.4437E+02
     10.173  0.1508E+01  0.4459E+02
     10.316  0.1321E+01  0.4478E+02
     10.460  0.4991E+00  0.4485E+02
     10.603  0.6846E+00  0.4494E+02
     10.747  0.1449E+01  0.4515E+02
     10.890  0.1421E+01  0.4536E+02
     11.033  0.5165E+00  0.4543E+02
     11.177  0.2090E+00  0.4546E+02
     11.320  0.1083E+01  0.4562E+02
     11.464  0.1317E+01  0.4580E+02
     11.607  0.8779E+00  0.4593E+02
     11.751  0.1027E+01  0.4608E+02
     11.894  0.1222E+01  0.4625E+02
     12.037  0.8203E+00  0.4637E+02
     12.181  0.5934E+00  0.4646E+02
     12.324  0.7520E+00  0.4656E+02
     12.468  0.8979E+00  0.4669E+02
     12.611  0.8193E+00  0.4681E+02
     12.755  0.4988E+00  0.4688E+02
     12.898  0.3568E+00  0.4693E+02
     13.042  0.6708E+00  0.4703E+02
     13.185  0.6442E+00  0.4712E+02
     13.328  0.4008E+00  0.4718E+02
     13.472  0.9712E+00  0.4732E+02
     13.615  0.1013E+01  0.4746E+02
     13.759  0.5425E+00  0.4754E+02
     13.902  0.1860E+00  0.4757E+02
     14.046  0.9517E-01  0.4758E+02
     14.189  0.5151E+00  0.4766E+02
     14.332  0.8751E+00  0.4778E+02
     14.476  0.4134E+00  0.4784E+02
     14.619 -0.1794E-01  0.4784E+02
     14.763 -0.3976E-01  0.4783E+02
     14.906  0.9741E-01  0.4785E+02
     15.050  0.3506E+00  0.4790E+02
     15.193  0.6687E+00  0.4799E+02
     15.337  0.1372E+01  0.4819E+02
     15.480  0.1754E+01  0.4844E+02
     15.623  0.1586E+01  0.4867E+02
     15.767  0.1764E+01  0.4892E+02
     15.910  0.1620E+01  0.4915E+02
     16.054  0.1124E+01  0.4931E+02
     16.197  0.1335E+01  0.4951E+02
     16.341  0.9973E+00  0.4965E+02
     16.484  0.1082E+01  0.4980E+02
     16.627  0.1026E+01  0.4995E+02
     16.771  0.6400E+00  0.5004E+02
     16.914  0.9496E+00  0.5018E+02
     17.058  0.1052E+01  0.5033E+02
     17.201  0.1106E+01  0.5049E+02
     17.345  0.9605E+00  0.5063E+02
     17.488  0.1222E+01  0.5080E+02
     17.632  0.1286E+01  0.5099E+02
     17.775  0.8687E+00  0.5111E+02
     17.918  0.4194E+00  0.5117E+02
     18.062  0.4535E+00  0.5124E+02
     18.205  0.1181E+01  0.5141E+02
     18.349  0.1303E+01  0.5159E+02
     18.492  0.1023E+01  0.5174E+02
     18.636  0.8820E+00  0.5187E+02
     18.779  0.7180E+00  0.5197E+02
     18.923  0.1288E+01  0.5215E+02
     19.066  0.1260E+01  0.5233E+02
     19.209  0.1491E+01  0.5255E+02
     19.353  0.1503E+01  0.5276E+02
     19.496  0.1472E+01  0.5298E+02
     19.640  0.1913E+01  0.5325E+02
     19.783  0.1762E+01  0.5350E+02
     19.927  0.8982E+00  0.5363E+02
     20.070  0.8855E+00  0.5376E+02
     20.213  0.2177E+01  0.5407E+02
     20.357  0.2013E+01  0.5436E+02
     20.500  0.1410E+01  0.5456E+02
     20.644  0.1174E+01  0.5473E+02
     20.787  0.1007E+01  0.5487E+02
     20.931  0.1616E+01  0.5511E+02
     21.074  0.1881E+01  0.5538E+02
     21.218  0.1552E+01  0.5560E+02
     21.361  0.1127E+01  0.5576E+02
     21.504  0.1013E+01  0.5591E+02
     21.648  0.1580E+01  0.5613E+02
     21.791  0.2232E+01  0.5645E+02
     21.935  0.1990E+01  0.5674E+02
     22.078  0.1641E+01  0.5697E+02
     22.222  0.1933E+01  0.5725E+02
     22.365  0.1492E+01  0.5746E+02
     22.508  0.1082E+01  0.5762E+02
     22.652  0.1570E+01  0.5784E+02
     22.795  0.1747E+01  0.5810E+02
     22.939  0.2192E+01  0.5841E+02
     23.082  0.2046E+01  0.5870E+02
     23.226  0.1123E+01  0.5886E+02
     23.369  0.1335E+01  0.5906E+02
     23.513  0.1779E+01  0.5931E+02
     23.656  0.1954E+01  0.5959E+02
     23.799  0.2934E+01  0.6001E+02
     23.943  0.2650E+01  0.6039E+02
     24.086  0.1108E+01  0.6055E+02
     24.230  0.9280E+00  0.6068E+02
     24.373  0.8991E+00  0.6081E+02
     24.517  0.1586E+01  0.6104E+02
     24.660  0.2245E+01  0.6136E+02
     24.803  0.1880E+01  0.6163E+02
     24.947  0.1615E+01  0.6186E+02
     25.090  0.1392E+01  0.6206E+02
     25.234  0.1571E+01  0.6229E+02
     25.377  0.2254E+01  0.6261E+02
     25.521  0.1895E+01  0.6288E+02
     25.664  0.1244E+01  0.6306E+02
     25.808  0.1054E+01  0.6321E+02
     25.951  0.1815E+01  0.6347E+02
     26.094  0.2716E+01  0.6386E+02
     26.238  0.2093E+01  0.6416E+02
     26.381  0.1182E+01  0.6433E+02
     26.525  0.1286E+01  0.6452E+02
     26.668  0.1272E+01  0.6470E+02
     26.812  0.5155E+00  0.6477E+02
     26.955  0.4275E+00  0.6484E+02
     27.098  0.1390E+01  0.6503E+02
     27.242  0.2175E+01  0.6535E+02
     27.385  0.2124E+01  0.6565E+02
     27.529  0.1812E+01  0.6591E+02
     27.672  0.1990E+01  0.6620E+02
     27.816  0.1617E+01  0.6643E+02
     27.959  0.1245E+01  0.6661E+02
     28.103  0.1215E+01  0.6678E+02
     28.246  0.1549E+01  0.6700E+02
     28.389  0.1522E+01  0.6722E+02
     28.533  0.8311E+00  0.6734E+02
     28.676  0.4748E+00  0.6741E+02
     28.820  0.8570E+00  0.6753E+02
     28.963  0.2353E+01  0.6787E+02
     29.107  0.2901E+01  0.6829E+02
     29.250  0.1512E+01  0.6850E+02
     29.393  0.1305E+01  0.6869E+02
     29.537  0.1527E+01  0.6891E+02
     29.680  0.1536E+01  0.6913E+02
     29.824  0.1470E+01  0.6934E+02
     29.967  0.1022E+01  0.6949E+02
     30.111  0.1518E+01  0.6970E+02
     30.254  0.1680E+01  0.6995E+02
     30.398  0.1444E+01  0.7015E+02
     30.541  0.1633E+01  0.7039E+02
     30.684  0.1652E+01  0.7062E+02
     30.828  0.2013E+01  0.7091E+02
     30.971  0.2759E+01  0.7131E+02
     31.115  0.2437E+01  0.7166E+02
     31.258  0.1405E+01  0.7186E+02
     31.402  0.1758E+01  0.7211E+02
     31.545  0.2395E+01  0.7246E+02
     31.688  0.2044E+01  0.7275E+02
     31.832  0.1543E+01  0.7297E+02
     31.975  0.1320E+01  0.7316E+02
     32.119  0.1554E+01  0.7338E+02
     32.262  0.2757E+01  0.7378E+02
     32.406  0.3194E+01  0.7424E+02
     32.549  0.1670E+01  0.7448E+02
     32.693  0.6119E+00  0.7456E+02
     32.836  0.1432E+01  0.7477E+02
     32.979  0.2546E+01  0.7513E+02
     33.123  0.2050E+01  0.7543E+02
     33.266  0.9177E+00  0.7556E+02
     33.410  0.1117E+01  0.7572E+02
     33.553  0.1786E+01  0.7598E+02
     33.697  0.2503E+01  0.7633E+02
     33.840  0.2538E+01  0.7670E+02
     33.983  0.2589E+01  0.7707E+02
     34.127  0.2337E+01  0.7741E+02
     34.270  0.1714E+01  0.7765E+02
     34.414  0.1943E+01  0.7793E+02
     34.557  0.1750E+01  0.7818E+02
     34.701  0.1243E+01  0.7836E+02
     34.844  0.1061E+01  0.7851E+02
     34.988  0.5913E+00  0.7860E+02
     35.131  0.1745E+00  0.7862E+02
     35.274  0.5346E+00  0.7870E+02
     35.418  0.8204E+00  0.7882E+02
     35.561  0.1185E+01  0.7899E+02
     35.705  0.1530E+01  0.7920E+02
     35.848  0.1140E+01  0.7937E+02
     35.992  0.6737E+00  0.7946E+02
     36.135  0.4984E+00  0.7954E+02
     36.279  0.8221E+00  0.7965E+02
     36.422  0.6927E+00  0.7975E+02
     36.565  0.4994E+00  0.7983E+02
     36.709  0.4793E+00  0.7989E+02
     36.852  0.2379E+00  0.7993E+02
     36.996  0.2521E+00  0.7996E+02
     37.139  0.2309E+00  0.8000E+02
     37.283  0.3309E-01  0.8000E+02
     37.426 -0.1325E-01  0.8000E+02
     37.569 -0.2479E-02  0.8000E+02
     37.713 -0.1082E-03  0.8000E+02
     37.856 -0.1474E-05  0.8000E+02
     38.000 -0.6724E-08  0.8000E+02
     38.143 -0.1054E-10  0.8000E+02
     38.287 -0.5708E-14  0.8000E+02
     38.430  0.0000E+00  0.8000E+02
     38.574  0.0000E+00  0.8000E+02
     38.717  0.0000E+00  0.8000E+02
     38.860  0.0000E+00  0.8000E+02
     39.004  0.0000E+00  0.8000E+02
