    4    4    1    1
  0.1022208E+02  0.3445083E-09  0.3445083E-09  0.3445083E-09  0.5000000E-15
  1.000000000000000E-004
  CAR 
 unknown system                          
     32     35     40
 
  0.0000000E+00  0.0000000E+00  0.0000000E+00  0.1371742E-02
    1       -2.027569   1.000000
    2        1.868124   1.000000
    3        1.868124   1.000000
    4        1.868124   1.000000
    5        2.612719   1.000000
    6        2.612719   1.000000
    7        2.612719   1.000000
    8        5.183273   1.000000
    9        5.183273   1.000000
   10        5.183273   1.000000
   11        6.743080   0.739280
   12        6.743080   0.739280
   13        7.780853  -0.000000
   14        7.780853  -0.000000
   15        7.780853  -0.000000
   16        8.082971  -0.000000
   17        8.082971  -0.000000
   18        8.082971  -0.000000
   19        8.082971  -0.000000
   20        8.082971  -0.000000
   21        8.082971  -0.000000
   22       10.079261  -0.000000
   23       10.079261  -0.000000
   24       10.079261  -0.000000
   25       18.577708   0.000000
   26       18.577708   0.000000
   27       18.577708   0.000000
   28       23.085557   0.000000
   29       23.085557   0.000000
   30       23.085557   0.000000
   31       23.085557   0.000000
   32       23.085557   0.000000
   33       23.085557   0.000000
   34       28.517652   0.000000
   35       28.517652   0.000000
   36       28.517652   0.000000
   37       30.153458   0.000000
   38       33.431267   0.000000
   39       33.431267   0.000000
   40       33.431267   0.000000
 
  0.1111111E+00  0.0000000E+00  0.0000000E+00  0.8230453E-02
    1       -1.851948   1.000000
    2        1.908546   1.000000
    3        1.976323   1.000000
    4        1.976323   1.000000
    5        2.680728   1.000000
    6        2.692276   1.000000
    7        2.692276   1.000000
    8        5.093787   1.000000
    9        5.247328   1.000000
   10        5.247328   1.000000
   11        6.660009   0.964023
   12        6.772690   0.624297
   13        7.447626  -0.000025
   14        7.447626  -0.000025
   15        7.672532  -0.000000
   16        7.672532  -0.000000
   17        7.748209  -0.000000
   18        7.959077  -0.000000
   19        7.959077  -0.000000
   20        8.083176  -0.000000
   21        8.083176  -0.000000
   22        9.386578  -0.000000
   23       10.835843  -0.000000
   24       10.835843  -0.000000
   25       18.575733   0.000000
   26       18.575733   0.000000
   27       19.490487   0.000000
   28       22.327909   0.000000
   29       22.327909   0.000000
   30       22.684785   0.000000
   31       22.684785   0.000000
   32       23.379723   0.000000
   33       23.379723   0.000000
   34       28.536889   0.000000
   35       29.424878   0.000000
   36       29.424878   0.000000
   37       30.030575   0.000000
   38       33.499571   0.000000
   39       34.252426   0.000000
   40       34.252472   0.000000
 
  0.2222222E+00  0.0000000E+00  0.0000000E+00  0.8230453E-02
    1       -1.338163   1.000000
    2        1.977624   1.000000
    3        2.274370   1.000000
    4        2.274370   1.000000
    5        2.879300   1.000000
    6        2.930944   1.000000
    7        2.930944   1.000000
    8        4.841973   1.000000
    9        5.438077   1.000000
   10        5.438077   1.000000
   11        6.420432   1.010577
   12        6.420432   1.010577
   13        6.430205   1.012195
   14        6.859277   0.269883
   15        7.370793  -0.000220
   16        7.370793  -0.000220
   17        7.622505  -0.000000
   18        7.622505  -0.000000
   19        7.654727  -0.000000
   20        7.946275  -0.000000
   21        8.083760  -0.000000
   22        8.083760  -0.000000
   23       12.224177  -0.000000
   24       12.224177  -0.000000
   25       18.573191   0.000000
   26       18.573191   0.000000
   27       20.760446   0.000000
   28       20.760446   0.000000
   29       21.604265   0.000000
   30       21.834467   0.000000
   31       21.834467   0.000000
   32       24.222688   0.000000
   33       24.222688   0.000000
   34       28.597033   0.000000
   35       29.734871   0.000000
   36       31.447384   0.000000
   37       31.447384   0.000000
   38       32.783282   0.000000
   39       32.980270   0.000000
   40       32.980271   0.000000
 
  0.3333333E+00  0.0000000E+00  0.0000000E+00  0.8230453E-02
    1       -0.534023   1.000000
    2        1.890661   1.000000
    3        2.671050   1.000000
    4        2.671050   1.000000
    5        3.191794   1.000000
    6        3.328377   1.000000
    7        3.328377   1.000000
    8        4.469588   1.000000
    9        5.444256   1.000000
   10        5.444256   1.000000
   11        5.747316   1.000000
   12        5.747316   1.000000
   13        6.115750   1.000007
   14        6.608673   1.021575
   15        6.964021   0.007942
   16        6.964021   0.007942
   17        6.993300  -0.019720
   18        7.153880  -0.016127
   19        7.153880  -0.016127
   20        7.512013  -0.000003
   21        8.084608  -0.000000
   22        8.084608  -0.000000
   23       13.798250   0.000000
   24       13.798250   0.000000
   25       18.577231   0.000000
   26       18.577231   0.000000
   27       19.003241   0.000000
   28       19.003241   0.000000
   29       21.047018   0.000000
   30       21.047018   0.000000
   31       24.142577   0.000000
   32       25.514010   0.000000
   33       25.514010   0.000000
   34       28.700987   0.000000
   35       29.397835   0.000000
   36       30.885590   0.000000
   37       30.991205   0.000000
   38       30.991205   0.000000
   39       33.998641   0.000000
   40       33.998645   0.000000
 
  0.4444444E+00  0.0000000E+00  0.0000000E+00  0.8230453E-02
    1        0.449856   1.000000
    2        1.372122   1.000000
    3        2.981963   1.000000
    4        2.981963   1.000000
    5        3.589815   1.000000
    6        3.883053   1.000000
    7        3.883053   1.000000
    8        4.032810   1.000000
    9        4.591262   1.000000
   10        4.591262   1.000000
   11        5.849561   1.000000
   12        5.898385   1.000000
   13        6.158701   1.000026
   14        6.158701   1.000026
   15        6.642784   0.989589
   16        6.642784   0.989589
   17        6.643241   0.988999
   18        6.643241   0.988999
   19        7.159949  -0.014912
   20        7.340071  -0.000479
   21        8.084814  -0.000000
   22        8.084814  -0.000000
   23       15.473299   0.000000
   24       15.473299   0.000000
   25       17.219106   0.000000
   26       17.219106   0.000000
   27       18.581924   0.000000
   28       18.581924   0.000000
   29       20.598358   0.000000
   30       20.598358   0.000000
   31       26.665034   0.000000
   32       27.145529   0.000000
   33       27.145529   0.000000
   34       28.873161   0.000000
   35       28.912244   0.000000
   36       29.006993   0.000000
   37       29.006993   0.000000
   38       29.101397   0.000000
   39       35.524959   0.000000
   40       36.895434   0.000000
 
  0.1111111E+00  0.1111111E+00  0.0000000E+00  0.1646091E-01
    1       -1.678599   1.000000
    2        2.019252   1.000000
    3        2.019252   1.000000
    4        2.080183   1.000000
    5        2.757853   1.000000
    6        2.757853   1.000000
    7        2.767939   1.000000
    8        5.043310   1.000000
    9        5.277268   1.000000
   10        5.299488   1.000000
   11        6.637488   0.996098
   12        6.755650   0.692052
   13        7.085701  -0.031158
   14        7.236305  -0.004454
   15        7.236305  -0.004454
   16        7.573465  -0.000000
   17        7.675913  -0.000000
   18        7.675913  -0.000000
   19        7.958812  -0.000000
   20        7.958812  -0.000000
   21        8.005724  -0.000000
   22       10.171708  -0.000000
   23       10.171708  -0.000000
   24       11.397595  -0.000000
   25       18.538090   0.000000
   26       19.510998   0.000000
   27       19.510998   0.000000
   28       20.846022   0.000000
   29       22.593920   0.000000
   30       22.593920   0.000000
   31       22.966140   0.000000
   32       22.966140   0.000000
   33       23.660656   0.000000
   34       29.475023   0.000000
   35       29.475023   0.000000
   36       29.553341   0.000000
   37       29.756899   0.000000
   38       32.731607   0.000000
   39       34.325808   0.000000
   40       34.325828   0.000000
 
  0.2222222E+00  0.1111111E+00  0.0000000E+00  0.3292181E-01
    1       -1.172180   1.000000
    2        2.095537   1.000000
    3        2.325356   1.000000
    4        2.367803   1.000000
    5        2.949172   1.000000
    6        2.989020   1.000000
    7        2.992340   1.000000
    8        4.822146   1.000000
    9        5.447535   1.000000
   10        5.448732   1.000000
   11        6.225335   1.000175
   12        6.265141   1.000484
   13        6.449296   1.015786
   14        6.711091   0.845383
   15        6.845312   0.323081
   16        7.295060  -0.001363
   17        7.378801  -0.000178
   18        7.577189  -0.000000
   19        7.621322  -0.000000
   20        7.958183  -0.000000
   21        7.963322  -0.000000
   22        8.907922  -0.000000
   23       11.466244  -0.000000
   24       12.625192   0.000000
   25       18.214434   0.000000
   26       19.492749   0.000000
   27       19.568257   0.000000
   28       21.003266   0.000000
   29       21.610461   0.000000
   30       22.108503   0.000000
   31       23.343966   0.000000
   32       23.559943   0.000000
   33       23.805474   0.000000
   34       29.081363   0.000000
   35       29.634686   0.000000
   36       30.758239   0.000000
   37       30.803380   0.000000
   38       31.535568   0.000000
   39       33.622925   0.000000
   40       34.590526   0.000000
 
  0.3333333E+00  0.1111111E+00  0.0000000E+00  0.3292181E-01
    1       -0.379813   1.000000
    2        2.017071   1.000000
    3        2.737233   1.000000
    4        2.759938   1.000000
    5        3.249830   1.000000
    6        3.352713   1.000000
    7        3.373117   1.000000
    8        4.471823   1.000000
    9        5.285814   1.000000
   10        5.384105   1.000000
   11        5.625318   1.000000
   12        5.751840   1.000000
   13        6.015134   1.000000
   14        6.232561   1.000212
   15        6.917004   0.092524
   16        6.978488  -0.007837
   17        7.013673  -0.030022
   18        7.152867  -0.016334
   19        7.294901  -0.001368
   20        7.945243  -0.000000
   21        7.953860  -0.000000
   22        7.956658  -0.000000
   23       12.851491   0.000000
   24       14.117906   0.000000
   25       17.062776   0.000000
   26       19.153705   0.000000
   27       19.240309   0.000000
   28       19.608344   0.000000
   29       21.406918   0.000000
   30       22.697618   0.000000
   31       23.884910   0.000000
   32       24.452213   0.000000
   33       25.333172   0.000000
   34       28.165852   0.000000
   35       29.003844   0.000000
   36       29.941176   0.000000
   37       32.374375   0.000000
   38       32.766929   0.000000
   39       33.039579   0.000000
   40       34.095639   0.000000
 
  0.4444444E+00  0.1111111E+00  0.0000000E+00  0.3292181E-01
    1        0.590321   1.000000
    2        1.503241   1.000000
    3        3.069872   1.000000
    4        3.079707   1.000000
    5        3.631887   1.000000
    6        3.837754   1.000000
    7        3.906993   1.000000
    8        4.055919   1.000000
    9        4.480246   1.000000
   10        4.583203   1.000000
   11        5.582357   1.000000
   12        5.591748   1.000000
   13        6.159992   1.000027
   14        6.356822   1.003576
   15        6.625073   1.009038
   16        6.642460   0.990005
   17        6.649959   0.979775
   18        6.799017   0.514427
   19        7.231518  -0.004859
   20        7.498992  -0.000005
   21        7.953253  -0.000000
   22        7.954647  -0.000000
   23       14.257098   0.000000
   24       15.663293   0.000000
   25       15.749338   0.000000
   26       17.469061   0.000000
   27       19.267797   0.000000
   28       19.490843   0.000000
   29       21.299369   0.000000
   30       21.819571   0.000000
   31       25.683737   0.000000
   32       25.745394   0.000000
   33       27.039525   0.000000
   34       27.316754   0.000000
   35       27.702314   0.000000
   36       30.297428   0.000000
   37       30.449518   0.000000
   38       31.253027   0.000000
   39       35.864563   0.000000
   40       36.302447   0.000000
 
  0.2222222E+00  0.2222222E+00  0.0000000E+00  0.1646091E-01
    1       -0.687997   1.000000
    2        2.424845   1.000000
    3        2.424845   1.000000
    4        2.627900   1.000000
    5        3.157890   1.000000
    6        3.157890   1.000000
    7        3.171674   1.000000
    8        4.705544   1.000000
    9        5.477163   1.000000
   10        5.547054   1.000000
   11        5.761429   1.000000
   12        5.761429   1.000000
   13        5.816860   1.000000
   14        6.385075   1.005980
   15        6.933539   0.056609
   16        7.076629  -0.032778
   17        7.311742  -0.000938
   18        7.311742  -0.000938
   19        7.618508  -0.000000
   20        7.618508  -0.000000
   21        7.777913  -0.000000
   22       10.057795  -0.000000
   23       10.057795  -0.000000
   24       13.631214   0.000000
   25       16.715534   0.000000
   26       19.183931   0.000000
   27       21.498597   0.000000
   28       21.498597   0.000000
   29       21.682007   0.000000
   30       21.682007   0.000000
   31       23.112384   0.000000
   32       23.112384   0.000000
   33       25.253791   0.000000
   34       27.845190   0.000000
   35       28.885184   0.000000
   36       30.128167   0.000000
   37       31.787739   0.000000
   38       31.787739   0.000000
   39       34.474362   0.000000
   40       36.609179   0.000000
 
  0.3333333E+00  0.2222222E+00  0.0000000E+00  0.3292181E-01
    1        0.067869   1.000000
    2        2.372499   1.000000
    3        2.881798   1.000000
    4        3.000770   1.000000
    5        3.421562   1.000000
    6        3.432934   1.000000
    7        3.501944   1.000000
    8        4.451891   1.000000
    9        4.924667   1.000000
   10        5.195375   1.000000
   11        5.281187   1.000000
   12        5.470753   1.000000
   13        5.798252   1.000000
   14        6.258720   1.000413
   15        6.769852   0.635827
   16        6.939136   0.046003
   17        7.076370  -0.032820
   18        7.150720  -0.016779
   19        7.198055  -0.008574
   20        7.615532  -0.000000
   21        7.672627  -0.000000
   22        8.851988  -0.000000
   23       11.226980  -0.000000
   24       14.972609   0.000000
   25       15.097890   0.000000
   26       19.340669   0.000000
   27       19.906923   0.000000
   28       20.942656   0.000000
   29       22.685533   0.000000
   30       22.991329   0.000000
   31       23.045690   0.000000
   32       25.313585   0.000000
   33       25.359031   0.000000
   34       26.518951   0.000000
   35       27.170184   0.000000
   36       31.409667   0.000000
   37       32.224570   0.000000
   38       34.218033   0.000000
   39       34.383113   0.000000
   40       34.392948   0.000000
 
  0.4444444E+00  0.2222222E+00  0.0000000E+00  0.3292181E-01
    1        0.992943   1.000000
    2        1.872774   1.000000
    3        3.289974   1.000000
    4        3.354400   1.000000
    5        3.719748   1.000000
    6        3.752898   1.000000
    7        3.972757   1.000000
    8        4.113201   1.000000
    9        4.223022   1.000000
   10        4.551113   1.000000
   11        5.122050   1.000000
   12        5.295449   1.000000
   13        6.179035   1.000048
   14        6.363466   1.004054
   15        6.542513   1.034680
   16        6.610466   1.020437
   17        6.647162   0.983740
   18        6.701566   0.872452
   19        7.569113  -0.000000
   20        7.616065  -0.000000
   21        7.629533  -0.000000
   22        8.069708  -0.000000
   23       12.417192   0.000000
   24       13.680004   0.000000
   25       16.506373   0.000000
   26       18.166885   0.000000
   27       19.690892   0.000000
   28       20.238272   0.000000
   29       23.582583   0.000000
   30       23.887546   0.000000
   31       24.270317   0.000000
   32       24.436762   0.000000
   33       25.185951   0.000000
   34       25.641690   0.000000
   35       28.246547   0.000000
   36       31.254775   0.000000
   37       32.858378   0.000000
   38       33.644685   0.000000
   39       34.055021   0.000000
   40       37.003823   0.000000
 
  0.3333333E+00  0.3333333E+00  0.0000000E+00  0.1646091E-01
    1        0.759719   1.000000
    2        2.875559   1.000000
    3        2.875559   1.000000
    4        3.317283   1.000000
    5        3.570633   1.000000
    6        3.698555   1.000000
    7        3.698555   1.000000
    8        4.356142   1.000000
    9        4.643585   1.000000
   10        4.643585   1.000000
   11        4.877407   1.000000
   12        5.332284   1.000000
   13        5.955810   1.000000
   14        6.131747   1.000011
   15        6.539430   1.034351
   16        6.741864   0.743701
   17        6.741864   0.743701
   18        7.155797  -0.015738
   19        7.155797  -0.015738
   20        7.416897  -0.000062
   21        7.595843  -0.000000
   22        9.817155  -0.000000
   23        9.817155  -0.000000
   24       13.389971   0.000000
   25       16.177732   0.000000
   26       19.662967   0.000000
   27       20.901375   0.000000
   28       20.901375   0.000000
   29       21.878407   0.000000
   30       21.878407   0.000000
   31       24.946642   0.000000
   32       25.532693   0.000000
   33       25.783857   0.000000
   34       25.783857   0.000000
   35       27.591743   0.000000
   36       30.445583   0.000000
   37       34.613617   0.000000
   38       34.890977   0.000000
   39       34.890977   0.000000
   40       36.000496   0.000000
 
  0.4444444E+00  0.3333333E+00  0.0000000E+00  0.3292181E-01
    1        1.596919   1.000000
    2        2.400083   1.000000
    3        3.357037   1.000000
    4        3.554843   1.000000
    5        3.746762   1.000000
    6        3.934988   1.000000
    7        4.061974   1.000000
    8        4.126593   1.000000
    9        4.170901   1.000000
   10        4.475178   1.000000
   11        4.747604   1.000000
   12        5.076995   1.000000
   13        6.156164   1.000024
   14        6.258180   1.000407
   15        6.358983   1.003726
   16        6.419562   1.010440
   17        6.436618   1.013340
   18        6.677377   0.931023
   19        7.183530  -0.010718
   20        7.258843  -0.002899
   21        8.123495  -0.000000
   22        8.814587  -0.000000
   23       10.839960  -0.000000
   24       11.993611  -0.000000
   25       17.611037   0.000000
   26       19.198804   0.000000
   27       20.173826   0.000000
   28       20.909805   0.000000
   29       22.115654   0.000000
   30       22.906880   0.000000
   31       23.478587   0.000000
   32       24.116673   0.000000
   33       26.519117   0.000000
   34       27.451754   0.000000
   35       28.857359   0.000000
   36       32.020228   0.000000
   37       32.336935   0.000000
   38       35.391808   0.000000
   39       35.549321   0.000000
   40       36.178771   0.000000
 
  0.4444444E+00  0.4444444E+00  0.0000000E+00  0.1646091E-01
    1        2.292165   1.000000
    2        2.934861   1.000000
    3        2.934861   1.000000
    4        3.320886   1.000000
    5        4.144969   1.000000
    6        4.144969   1.000000
    7        4.149257   1.000000
    8        4.187445   1.000000
    9        4.337480   1.000000
   10        4.461671   1.000000
   11        4.461671   1.000000
   12        4.837068   1.000000
   13        6.026176   1.000000
   14        6.158996   1.000026
   15        6.169092   1.000036
   16        6.169092   1.000036
   17        6.447762   1.015478
   18        6.767541   0.645153
   19        6.767541   0.645153
   20        6.956285   0.018232
   21        8.800846  -0.000000
   22        9.659443  -0.000000
   23        9.659443  -0.000000
   24       10.677366  -0.000000
   25       18.955198   0.000000
   26       20.468458   0.000000
   27       20.468458   0.000000
   28       20.847474   0.000000
   29       21.754079   0.000000
   30       21.754079   0.000000
   31       21.904342   0.000000
   32       22.819162   0.000000
   33       29.689335   0.000000
   34       29.689335   0.000000
   35       30.431018   0.000000
   36       31.129150   0.000000
   37       32.501245   0.000000
   38       33.546432   0.000000
   39       34.073975   0.000000
   40       34.073975   0.000000
 
  0.1111111E+00  0.1111111E+00  0.1111111E+00  0.1097394E-01
    1       -1.508174   1.000000
    2        2.124492   1.000000
    3        2.124492   1.000000
    4        2.124492   1.000000
    5        2.831368   1.000000
    6        2.831368   1.000000
    7        2.831368   1.000000
    8        4.999022   1.000000
    9        5.322231   1.000000
   10        5.322231   1.000000
   11        6.683387   0.917849
   12        6.683387   0.917849
   13        6.902362   0.130079
   14        6.902362   0.130079
   15        6.902362   0.130079
   16        7.460612  -0.000017
   17        7.460612  -0.000017
   18        7.460612  -0.000017
   19        7.979128  -0.000000
   20        7.979128  -0.000000
   21        7.979128  -0.000000
   22       10.698273  -0.000000
   23       10.698273  -0.000000
   24       10.698273  -0.000000
   25       19.474059   0.000000
   26       19.474059   0.000000
   27       19.474059   0.000000
   28       21.136944   0.000000
   29       21.136944   0.000000
   30       21.136944   0.000000
   31       23.937723   0.000000
   32       23.937723   0.000000
   33       23.937723   0.000000
   34       29.194548   0.000000
   35       29.600101   0.000000
   36       29.600101   0.000000
   37       29.600101   0.000000
   38       32.191865   0.000000
   39       35.199386   0.000000
   40       35.199845   0.000000
 
  0.2222222E+00  0.1111111E+00  0.1111111E+00  0.3292181E-01
    1       -1.010558   1.000000
    2        2.203979   1.000000
    3        2.416517   1.000000
    4        2.416517   1.000000
    5        3.017122   1.000000
    6        3.048708   1.000000
    7        3.048708   1.000000
    8        4.805514   1.000000
    9        5.446984   1.000000
   10        5.458069   1.000000
   11        6.094155   1.000003
   12        6.094155   1.000003
   13        6.395261   1.007108
   14        6.499145   1.026914
   15        6.814036   0.450968
   16        7.170493  -0.012930
   17        7.211660  -0.006867
   18        7.211660  -0.006867
   19        7.883348  -0.000000
   20        7.932459  -0.000000
   21        7.932459  -0.000000
   22        9.348301  -0.000000
   23       11.804112  -0.000000
   24       11.804112  -0.000000
   25       18.873874   0.000000
   26       18.873874   0.000000
   27       20.143477   0.000000
   28       20.143477   0.000000
   29       21.249613   0.000000
   30       22.257491   0.000000
   31       23.802390   0.000000
   32       23.802390   0.000000
   33       24.738122   0.000000
   34       27.968210   0.000000
   35       29.745919   0.000000
   36       30.819123   0.000000
   37       30.819123   0.000000
   38       31.198877   0.000000
   39       33.393723   0.000000
   40       35.589203   0.000000
 
  0.3333333E+00  0.1111111E+00  0.1111111E+00  0.3292181E-01
    1       -0.232653   1.000000
    2        2.127865   1.000000
    3        2.819514   1.000000
    4        2.819514   1.000000
    5        3.310098   1.000000
    6        3.390542   1.000000
    7        3.390542   1.000000
    8        4.480617   1.000000
    9        5.253638   1.000000
   10        5.253638   1.000000
   11        5.580669   1.000000
   12        5.685085   1.000000
   13        5.766157   1.000000
   14        6.367637   1.004380
   15        6.784597   0.575113
   16        6.878544   0.202325
   17        6.878544   0.202325
   18        7.010821  -0.028952
   19        7.714246  -0.000000
   20        7.890085  -0.000000
   21        7.890085  -0.000000
   22        8.131606  -0.000000
   23       13.074577   0.000000
   24       13.074577   0.000000
   25       17.486141   0.000000
   26       17.486141   0.000000
   27       20.209286   0.000000
   28       20.209286   0.000000
   29       22.531768   0.000000
   30       22.919474   0.000000
   31       22.919474   0.000000
   32       24.621731   0.000000
   33       25.981796   0.000000
   34       26.566064   0.000000
   35       30.056534   0.000000
   36       30.180312   0.000000
   37       31.391559   0.000000
   38       33.113020   0.000000
   39       33.113020   0.000000
   40       34.205750   0.000000
 
  0.4444444E+00  0.1111111E+00  0.1111111E+00  0.3292181E-01
    1        0.719262   1.000000
    2        1.617876   1.000000
    3        3.166213   1.000000
    4        3.166213   1.000000
    5        3.680626   1.000000
    6        3.800693   1.000000
    7        3.800693   1.000000
    8        4.087004   1.000000
    9        4.548334   1.000000
   10        4.548334   1.000000
   11        5.425960   1.000000
   12        5.486778   1.000000
   13        5.996928   1.000000
   14        6.375309   1.005035
   15        6.594858   1.028622
   16        6.594858   1.028622
   17        6.625329   1.008803
   18        7.235793  -0.004496
   19        7.246965  -0.003649
   20        7.491774  -0.000006
   21        7.871814  -0.000000
   22        7.871814  -0.000000
   23       14.289955   0.000000
   24       14.289955   0.000000
   25       16.195229   0.000000
   26       16.195229   0.000000
   27       20.495884   0.000000
   28       20.495884   0.000000
   29       22.130098   0.000000
   30       22.130098   0.000000
   31       23.799343   0.000000
   32       25.154549   0.000000
   33       27.130313   0.000000
   34       27.572041   0.000000
   35       29.003619   0.000000
   36       29.408906   0.000000
   37       30.718617   0.000000
   38       32.141795   0.000000
   39       35.836479   0.000000
   40       35.836479   0.000000
 
  0.2222222E+00  0.2222222E+00  0.1111111E+00  0.3292181E-01
    1       -0.539747   1.000000
    2        2.504518   1.000000
    3        2.504518   1.000000
    4        2.668314   1.000000
    5        3.217760   1.000000
    6        3.217760   1.000000
    7        3.222492   1.000000
    8        4.707649   1.000000
    9        5.474752   1.000000
   10        5.512602   1.000000
   11        5.671742   1.000000
   12        5.671742   1.000000
   13        5.693939   1.000000
   14        6.499611   1.027019
   15        6.880908   0.194567
   16        6.914793   0.097849
   17        6.955190   0.019798
   18        6.955190   0.019798
   19        7.836177  -0.000000
   20        7.836177  -0.000000
   21        7.842769  -0.000000
   22       10.287134  -0.000000
   23       10.287134  -0.000000
   24       12.618720   0.000000
   25       17.170803   0.000000
   26       19.765179   0.000000
   27       19.765179   0.000000
   28       20.190139   0.000000
   29       22.176238   0.000000
   30       22.176238   0.000000
   31       24.531410   0.000000
   32       24.531410   0.000000
   33       25.490115   0.000000
   34       26.328695   0.000000
   35       30.161748   0.000000
   36       30.280624   0.000000
   37       31.028362   0.000000
   38       31.028362   0.000000
   39       33.984525   0.000000
   40       36.307863   0.000000
 
  0.3333333E+00  0.2222222E+00  0.1111111E+00  0.6584362E-01
    1        0.192708   1.000000
    2        2.430229   1.000000
    3        2.923513   1.000000
    4        3.028042   1.000000
    5        3.461780   1.000000
    6        3.491438   1.000000
    7        3.519893   1.000000
    8        4.484891   1.000000
    9        4.959535   1.000000
   10        5.141481   1.000000
   11        5.234871   1.000000
   12        5.462252   1.000000
   13        5.661537   1.000000
   14        6.468423   1.019872
   15        6.587371   1.031279
   16        6.632280   1.001912
   17        6.711786   0.843323
   18        7.151634  -0.016589
   19        7.630777  -0.000000
   20        7.726740  -0.000000
   21        7.733604  -0.000000
   22        8.926374  -0.000000
   23       11.348288  -0.000000
   24       13.495924   0.000000
   25       15.791138   0.000000
   26       18.213545   0.000000
   27       20.529212   0.000000
   28       20.775195   0.000000
   29       22.296559   0.000000
   30       23.768441   0.000000
   31       24.534480   0.000000
   32       24.750002   0.000000
   33       25.506086   0.000000
   34       25.908492   0.000000
   35       28.963879   0.000000
   36       31.451826   0.000000
   37       31.452535   0.000000
   38       32.911616   0.000000
   39       33.340559   0.000000
   40       35.667741   0.000000
 
  0.4444444E+00  0.2222222E+00  0.1111111E+00  0.6584362E-01
    1        1.084743   1.000000
    2        1.932247   1.000000
    3        3.340351   1.000000
    4        3.423963   1.000000
    5        3.596434   1.000000
    6        3.730402   1.000000
    7        3.828762   1.000000
    8        4.174783   1.000000
    9        4.502447   1.000000
   10        4.652746   1.000000
   11        5.102361   1.000000
   12        5.280588   1.000000
   13        5.890693   1.000000
   14        6.208882   1.000112
   15        6.426489   1.011562
   16        6.466070   1.019348
   17        6.742149   0.742667
   18        7.237191  -0.004382
   19        7.512071  -0.000003
   20        7.664501  -0.000000
   21        7.667284  -0.000000