 vasp.6.2.0 18Jan21 (build Mar 17 2021 09:06:54) complex                        
  
 executed on             LinuxIFC date 2021.09.09  09:02:47
 serial version


--------------------------------------------------------------------------------------------------------


 INCAR:
   ENCUT = 300.000000
   SIGMA = 0.200000
   EDIFF = 1.00e-06
   GGA = PE
   PREC = normal
   IBRION = -1
   ICHARG = 1
   ISMEAR = 1
   KPAR = 1
   NBANDS = 40
   NSW = 0
   NCORE = 1
   LCHARG = .TRUE.

 POTCAR:    PAW_PBE Fe 06Sep2000                  
 POTCAR:    PAW_PBE Fe 06Sep2000                  
   SHA256 =  cd5a22d9368cc8b5cc476bea79732366149640da08ac9009b0e1b7fc627eea28 Fe/POTCAR             
   COPYR  = (c) Copyright 06Sep2000 Georg Kresse                                                    
   COPYR  = This file is part of the software VASP. Any use, copying, and all other rights are regul
   COPYR  = If you do not have a valid VASP license, you may not use, copy or distribute this file. 
   VRHFIN =Fe:  d7 s1                                                                               
   LEXCH  = PE                                                                                      
   EATOM  =   594.3153 eV,   43.6809 Ry                                                             
                                                                                                    
   TITEL  = PAW_PBE Fe 06Sep2000                                                                    
   LULTRA =        F    use ultrasoft PP ?                                                          
   IUNSCR =        1    unscreen: 0-lin 1-nonlin 2-no                                               
   RPACOR =    2.000    partial core radius                                                         
   POMASS =   55.847; ZVAL   =    8.000    mass and valenz                                          
   RCORE  =    2.300    outmost cutoff radius                                                       
   RWIGS  =    2.460; RWIGS  =    1.302    wigner-seitz radius (au A)                               
   ENMAX  =  267.882; ENMIN  =  200.911 eV                                                          
   RCLOC  =    1.701    cutoff for local pot                                                        
   LCOR   =        T    correct aug charges                                                         
   LPAW   =        T    paw PP                                                                      
   EAUG   =  511.368                                                                                
   DEXC   =    0.000                                                                                
   RMAX   =    2.356    core radius for proj-oper                                                   
   RAUG   =    1.300    factor for augmentation sphere                                              
   RDEP   =    2.442    radius for radial grids                                                     
   RDEPT  =    1.890    core radius for aug-charge                                                  
                                                                                                    
   Atomic configuration                                                                             
    9 entries                                                                                       
     n  l   j            E        occ.                                                              
     1  0  0.50     -6993.8440   2.0000                                                             
     2  0  0.50      -814.6047   2.0000                                                             
     2  1  1.50      -693.3689   6.0000                                                             
     3  0  0.50       -89.4732   2.0000                                                             
     3  1  1.50       -55.6373   6.0000                                                             
     3  2  2.50        -3.8151   7.0000                                                             
     4  0  0.50        -4.2551   1.0000                                                             
     4  1  1.50        -3.4015   0.0000                                                             
     4  3  2.50        -1.3606   0.0000                                                             
   Description                                                                                      
     l       E           TYP  RCUT    TYP  RCUT                                                     
     2     -3.8151135     23  2.300                                                                 
     2     -5.1756961     23  2.300                                                                 
     0     -4.2550963     23  2.300                                                                 
     0      7.2035603     23  2.300                                                                 
     1     -2.7211652     23  2.300                                                                 
     1     18.4316424     23  2.300                                                                 
  local pseudopotential read in
  partial core-charges read in
  partial kinetic energy density read in
  atomic valenz-charges read in
  non local Contribution for L=           2  read in
    real space projection operators read in
  non local Contribution for L=           2  read in
    real space projection operators read in
  non local Contribution for L=           0  read in
    real space projection operators read in
  non local Contribution for L=           0  read in
    real space projection operators read in
  non local Contribution for L=           1  read in
    real space projection operators read in
  non local Contribution for L=           1  read in
    real space projection operators read in
    PAW grid and wavefunctions read in
 
   number of l-projection  operators is LMAX  =           6
   number of lm-projection operators is LMMAX =          18
 
  PAW_PBE Fe 06Sep2000                  :
 energy of atom  1       EATOM= -594.3153
 kinetic energy error for atom=    0.0269 (will be added to EATOM!!)
 
 
 POSCAR: Fe
  positions in cartesian coordinates
  No initial velocities read in
 exchange correlation table for  LEXCH =        8
   RHO(1)=    0.500       N(1)  =     2000
   RHO(2)=  100.500       N(2)  =     4000
 


--------------------------------------------------------------------------------------------------------


 ion  position               nearest neighbor table
   1  0.000  0.000  0.000-   2 2.44   3 2.44   4 2.44   3 2.44   4 2.44   2 2.44   4 2.44   4 2.44
                             2 2.44   3 2.44   3 2.44   2 2.44
   2  0.500  0.500  0.000-   1 2.44   3 2.44   4 2.44   3 2.44   4 2.44   1 2.44   3 2.44   3 2.44
                             1 2.44   4 2.44   4 2.44   1 2.44
   3  0.500  0.000  0.500-   1 2.44   2 2.44   4 2.44   1 2.44   2 2.44   2 2.44   4 2.44   2 2.44
                             1 2.44   4 2.44   1 2.44   4 2.44
   4  0.000  0.500  0.500-   1 2.44   2 2.44   3 2.44   1 2.44   2 2.44   1 2.44   3 2.44   1 2.44
                             2 2.44   3 2.44   2 2.44   3 2.44
 
  LATTYP: Found a simple cubic cell.
 ALAT       =     3.4450830000
  
  Lattice vectors:
  
 A1 = (   3.4450830000,   0.0000000000,   0.0000000000)
 A2 = (   0.0000000000,   3.4450830000,   0.0000000000)
 A3 = (   0.0000000000,   0.0000000000,   3.4450830000)


Analysis of symmetry for initial positions (statically):
=====================================================================
 Subroutine PRICEL returns following result:
 
  LATTYP: Found a face centered cubic cell.
 ALAT       =     3.4450830000
  
  Lattice vectors:
  
 A1 = (   1.7225415000,  -1.7225415000,   0.0000000000)
 A2 = (   1.7225415000,   0.0000000000,   1.7225415000)
 A3 = (   0.0000000000,  -1.7225415000,   1.7225415000)
 
   4 primitive cells build up your supercell.
 

 Routine SETGRP: Setting up the symmetry group for a 
 simple cubic supercell.


 Subroutine GETGRP returns: Found 48 space group operations
 (whereof 48 operations were pure point group operations)
 out of a pool of 48 trial point group operations.


The static configuration has the point symmetry O_h .


Analysis of symmetry for dynamics (positions and initial velocities):
=====================================================================
 Subroutine PRICEL returns following result:
 
  LATTYP: Found a face centered cubic cell.
 ALAT       =     3.4450830000
  
  Lattice vectors:
  
 A1 = (   1.7225415000,  -1.7225415000,   0.0000000000)
 A2 = (   1.7225415000,   0.0000000000,   1.7225415000)
 A3 = (   0.0000000000,  -1.7225415000,   1.7225415000)
 
   4 primitive cells build up your supercell.
 

 Routine SETGRP: Setting up the symmetry group for a 
 simple cubic supercell.


 Subroutine GETGRP returns: Found 48 space group operations
 (whereof 48 operations were pure point group operations)
 out of a pool of 48 trial point group operations.


The dynamic configuration has the point symmetry O_h .


 Subroutine INISYM returns: Found 48 space group operations
 (whereof 48 operations are pure point group operations),
 and found     4 'primitive' translations


----------------------------------------------------------------------------------------

                                     Primitive cell                                     

  volume of cell :      10.2221

  direct lattice vectors                    reciprocal lattice vectors
     1.722541500 -1.722541500  0.000000000     0.290268769 -0.290268769 -0.290268769
     1.722541500  0.000000000  1.722541500     0.290268769  0.290268769  0.290268769
     0.000000000 -1.722541500  1.722541500    -0.290268769 -0.290268769  0.290268769

  length of vectors
     2.436041551  2.436041551  2.436041551     0.502760255  0.502760255  0.502760255

  position of ions in fractional coordinates (direct lattice)
     0.000000000  0.000000000  0.000000000

  ion indices of the primitive-cell ions
   primitive index   ion index
                 1           1

----------------------------------------------------------------------------------------

 
 
 KPOINTS: KPOINTS created by Atomic Simulation Env

Automatic generation of k-mesh.
 Grid dimensions read from file:
 generate k-points for:    9    9    9

 Generating k-lattice:

  Cartesian coordinates                     Fractional coordinates (reciprocal lattice)
     0.032252085  0.000000000  0.000000000     0.111111111  0.000000000  0.000000000
     0.000000000  0.032252085  0.000000000     0.000000000  0.111111111  0.000000000
     0.000000000  0.000000000  0.032252085     0.000000000  0.000000000  0.111111111

  Length of vectors
     0.032252085  0.032252085  0.032252085

  Shift w.r.t. Gamma in fractional coordinates (k-lattice)
     0.000000000  0.000000000  0.000000000

 
 Subroutine IBZKPT returns following result:
 ===========================================
 
 Found     35 irreducible k-points:
 
 Following reciprocal coordinates:
            Coordinates               Weight
  0.000000  0.000000  0.000000      1.000000
  0.111111  0.000000  0.000000      6.000000
  0.222222  0.000000  0.000000      6.000000
  0.333333  0.000000  0.000000      6.000000
  0.444444  0.000000  0.000000      6.000000
  0.111111  0.111111  0.000000     12.000000
  0.222222  0.111111  0.000000     24.000000
  0.333333  0.111111  0.000000     24.000000
  0.444444  0.111111  0.000000     24.000000
  0.222222  0.222222  0.000000     12.000000
  0.333333  0.222222  0.000000     24.000000
  0.444444  0.222222  0.000000     24.000000
  0.333333  0.333333  0.000000     12.000000
  0.444444  0.333333  0.000000     24.000000
  0.444444  0.444444  0.000000     12.000000
  0.111111  0.111111  0.111111      8.000000
  0.222222  0.111111  0.111111     24.000000
  0.333333  0.111111  0.111111     24.000000
  0.444444  0.111111  0.111111     24.000000
  0.222222  0.222222  0.111111     24.000000
  0.333333  0.222222  0.111111     48.000000
  0.444444  0.222222  0.111111     48.000000
  0.333333  0.333333  0.111111     24.000000
  0.444444  0.333333  0.111111     48.000000
  0.444444  0.444444  0.111111     24.000000
  0.222222  0.222222  0.222222      8.000000
  0.333333  0.222222  0.222222     24.000000
  0.444444  0.222222  0.222222     24.000000
  0.333333  0.333333  0.222222     24.000000
  0.444444  0.333333  0.222222     48.000000
  0.444444  0.444444  0.222222     24.000000
  0.333333  0.333333  0.333333      8.000000
  0.444444  0.333333  0.333333     24.000000
  0.444444  0.444444  0.333333     24.000000
  0.444444  0.444444  0.444444      8.000000
 
 Following cartesian coordinates:
            Coordinates               Weight
  0.000000  0.000000  0.000000      1.000000
  0.032252  0.000000  0.000000      6.000000
  0.064504  0.000000  0.000000      6.000000
  0.096756  0.000000  0.000000      6.000000
  0.129008  0.000000  0.000000      6.000000
  0.032252  0.032252  0.000000     12.000000
  0.064504  0.032252  0.000000     24.000000
  0.096756  0.032252  0.000000     24.000000
  0.129008  0.032252  0.000000     24.000000
  0.064504  0.064504  0.000000     12.000000
  0.096756  0.064504  0.000000     24.000000
  0.129008  0.064504  0.000000     24.000000
  0.096756  0.096756  0.000000     12.000000
  0.129008  0.096756  0.000000     24.000000
  0.129008  0.129008  0.000000     12.000000
  0.032252  0.032252  0.032252      8.000000
  0.064504  0.032252  0.032252     24.000000
  0.096756  0.032252  0.032252     24.000000
  0.129008  0.032252  0.032252     24.000000
  0.064504  0.064504  0.032252     24.000000
  0.096756  0.064504  0.032252     48.000000
  0.129008  0.064504  0.032252     48.000000
  0.096756  0.096756  0.032252     24.000000
  0.129008  0.096756  0.032252     48.000000
  0.129008  0.129008  0.032252     24.000000
  0.064504  0.064504  0.064504      8.000000
  0.096756  0.064504  0.064504     24.000000
  0.129008  0.064504  0.064504     24.000000
  0.096756  0.096756  0.064504     24.000000
  0.129008  0.096756  0.064504     48.000000
  0.129008  0.129008  0.064504     24.000000
  0.096756  0.096756  0.096756      8.000000
  0.129008  0.096756  0.096756     24.000000
  0.129008  0.129008  0.096756     24.000000
  0.129008  0.129008  0.129008      8.000000
 


--------------------------------------------------------------------------------------------------------




 Dimension of arrays:
   k-points           NKPTS =     35   k-points in BZ     NKDIM =     35   number of bands    NBANDS=     40
   number of dos      NEDOS =    301   number of ions     NIONS =      4
   non local maximal  LDIM  =      6   non local SUM 2l+1 LMDIM =     18
   total plane-waves  NPLWV =   4096
   max r-space proj   IRMAX =      1   max aug-charges    IRDMAX=   3768
   dimension x,y,z NGX =    16 NGY =   16 NGZ =   16
   dimension x,y,z NGXF=    32 NGYF=   32 NGZF=   32
   support grid    NGXF=    32 NGYF=   32 NGZF=   32
   ions per type =               4
   NGX,Y,Z   is equivalent  to a cutoff of   7.72,  7.72,  7.72 a.u.
   NGXF,Y,Z  is equivalent  to a cutoff of  15.44, 15.44, 15.44 a.u.

 SYSTEM =  unknown system                          
 POSCAR =  Fe                                      

 Startparameter for this run:
   NWRITE =      2    write-flag & timer
   PREC   = normal    normal or accurate (medium, high low for compatibility)
   ISTART =      0    job   : 0-new  1-cont  2-samecut
   ICHARG =      1    charge: 1-file 2-atom 10-const
   ISPIN  =      1    spin polarized calculation?
   LNONCOLLINEAR =      F non collinear calculations
   LSORBIT =      F    spin-orbit coupling
   INIWAV =      1    electr: 0-lowe 1-rand  2-diag
   LASPH  =      F    aspherical Exc in radial PAW
   METAGGA=      F    non-selfconsistent MetaGGA calc.

 Electronic Relaxation 1
   ENCUT  =  300.0 eV  22.05 Ry    4.70 a.u.   4.87  4.87  4.87*2*pi/ulx,y,z
   ENINI  =  300.0     initial cutoff
   ENAUG  =  511.4 eV  augmentation charge cutoff
   NELM   =     60;   NELMIN=  2; NELMDL= -5     # of ELM steps 
   EDIFF  = 0.1E-05   stopping-criterion for ELM
   LREAL  =      F    real-space projection
   NLSPLINE    = F    spline interpolate recip. space projectors
   LCOMPAT=      F    compatible to vasp.4.4
   GGA_COMPAT  = T    GGA compatible to vasp.4.4-vasp.4.6
   LMAXPAW     = -100 max onsite density
   LMAXMIX     =    2 max onsite mixed and CHGCAR
   VOSKOWN=      0    Vosko Wilk Nusair interpolation
   ROPT   =    0.00000
 Ionic relaxation
   EDIFFG = 0.1E-04   stopping-criterion for IOM
   NSW    =      0    number of steps for IOM
   NBLOCK =      1;   KBLOCK =      1    inner block; outer block 
   IBRION =     -1    ionic relax: 0-MD 1-quasi-New 2-CG
   NFREE  =      0    steps in history (QN), initial steepest desc. (CG)
   ISIF   =      2    stress and relaxation
   IWAVPR =      0    prediction:  0-non 1-charg 2-wave 3-comb
   ISYM   =      2    0-nonsym 1-usesym 2-fastsym
   LCORR  =      T    Harris-Foulkes like correction to forces

   POTIM  = 0.5000    time-step for ionic-motion
   TEIN   =    0.0    initial temperature
   TEBEG  =    0.0;   TEEND  =   0.0 temperature during run
   SMASS  =  -3.00    Nose mass-parameter (am)
   estimated Nose-frequenzy (Omega)   =  0.10E-29 period in steps = 0.13E+47 mass=  -0.271E-27a.u.
   SCALEE = 1.0000    scale energy and forces
   NPACO  =    256;   APACO  = 16.0  distance and # of slots for P.C.
   PSTRESS=    0.0 pullay stress

  Mass of Ions in am
   POMASS =  55.85
  Ionic Valenz
   ZVAL   =   8.00
  Atomic Wigner-Seitz radii
   RWIGS  =  -1.00
  virtual crystal weights 
   VCA    =   1.00
   NELECT =      32.0000    total number of electrons
   NUPDOWN=      -1.0000    fix difference up-down

 DOS related values:
   EMIN   =  10.00;   EMAX   =-10.00  energy-range for DOS
   EFERMI =   0.00
   ISMEAR =     1;   SIGMA  =   0.20  broadening in eV -4-tet -1-fermi 0-gaus

 Electronic relaxation 2 (details)
   IALGO  =     38    algorithm
   LDIAG  =      T    sub-space diagonalisation (order eigenvalues)
   LSUBROT=      F    optimize rotation matrix (better conditioning)
   TURBO    =      0    0=normal 1=particle mesh
   IRESTART =      0    0=no restart 2=restart with 2 vectors
   NREBOOT  =      0    no. of reboots
   NMIN     =      0    reboot dimension
   EREF     =   0.00    reference energy to select bands
   IMIX   =      4    mixing-type and parameters
     AMIX     =   0.40;   BMIX     =  1.00
     AMIX_MAG =   1.60;   BMIX_MAG =  1.00
     AMIN     =   0.10
     WC   =   100.;   INIMIX=   1;  MIXPRE=   1;  MAXMIX= -45

 Intra band minimization:
   WEIMIN = 0.0000     energy-eigenvalue tresh-hold
   EBREAK =  0.62E-08  absolut break condition
   DEPER  =   0.30     relativ break condition  

   TIME   =   0.40     timestep for ELM

  volume/ion in A,a.u.               =      10.22        68.98
  Fermi-wavevector in a.u.,A,eV,Ry     =   1.508661  2.850957 30.967669  2.276059
  Thomas-Fermi vector in A             =   2.619086
 
 Write flags
   LWAVE        =      T    write WAVECAR
   LDOWNSAMPLE  =      F    k-point downsampling of WAVECAR
   LCHARG       =      T    write CHGCAR
   LVTOT        =      F    write LOCPOT, total local potential
   LVHAR        =      F    write LOCPOT, Hartree potential only
   LELF         =      F    write electronic localiz. function (ELF)
   LORBIT       =      0    0 simple, 1 ext, 2 COOP (PROOUT), +10 PAW based schemes


 Dipole corrections
   LMONO  =      F    monopole corrections only (constant potential shift)
   LDIPOL =      F    correct potential (dipole corrections)
   IDIPOL =      0    1-x, 2-y, 3-z, 4-all directions 
   EPSILON=  1.0000000 bulk dielectric constant

 Exchange correlation treatment:
   GGA     =    PE    GGA type
   LEXCH   =     8    internal setting for exchange type
   VOSKOWN=      0    Vosko Wilk Nusair interpolation
   LHFCALC =     F    Hartree Fock is set to
   LHFONE  =     F    Hartree Fock one center treatment
   AEXX    =    0.0000 exact exchange contribution

 Linear response parameters
   LEPSILON=     F    determine dielectric tensor
   LRPA    =     F    only Hartree local field effects (RPA)
   LNABLA  =     F    use nabla operator in PAW spheres
   LVEL    =     F    velocity operator in full k-point grid
   LINTERFAST=   F  fast interpolation
   KINTER  =     0    interpolate to denser k-point grid
   CSHIFT  =0.1000    complex shift for real part using Kramers Kronig
   OMEGAMAX=  -1.0    maximum frequency
   DEG_THRESHOLD= 0.2000000E-02 threshold for treating states as degnerate
   RTIME   =   -0.100 relaxation time in fs
  (WPLASMAI=    0.000 imaginary part of plasma frequency in eV, 0.658/RTIME)
   DFIELD  = 0.0000000 0.0000000 0.0000000 field for delta impulse in time
 
 Orbital magnetization related:
   ORBITALMAG=     F  switch on orbital magnetization
   LCHIMAG   =     F  perturbation theory with respect to B field
   DQ        =  0.001000  dq finite difference perturbation B field
   LLRAUG    =     F  two centre corrections for induced B field



--------------------------------------------------------------------------------------------------------


 Static calculation
 charge density and potential will be updated during run
 non-spin polarized calculation
 Variant of blocked Davidson
 Davidson routine will perform the subspace rotation
 perform sub-space diagonalisation
    after iterative eigenvector-optimisation
 modified Broyden-mixing scheme, WC =      100.0
 initial mixing is a Kerker type mixing with AMIX =  0.4000 and BMIX =      1.0000
 Hartree-type preconditioning will be used
 using additional bands           24
 reciprocal scheme for non local part
 use partial core corrections
 calculate Harris-corrections to forces 
   (improved forces if not selfconsistent)
 use gradient corrections 
 use of overlap-Matrix (Vanderbilt PP)
 Methfessel and Paxton  Order N= 1 SIGMA  =   0.20


--------------------------------------------------------------------------------------------------------


  energy-cutoff  :      300.00
  volume of cell :       40.89
      direct lattice vectors                 reciprocal lattice vectors
     3.445083000  0.000000000  0.000000000     0.290268769  0.000000000  0.000000000
     0.000000000  3.445083000  0.000000000     0.000000000  0.290268769  0.000000000
     0.000000000  0.000000000  3.445083000     0.000000000  0.000000000  0.290268769

  length of vectors
     3.445083000  3.445083000  3.445083000     0.290268769  0.290268769  0.290268769


 
 k-points in units of 2pi/SCALE and weight: KPOINTS created by Atomic Simulation Env
   0.00000000  0.00000000  0.00000000       0.001
   0.03225209  0.00000000  0.00000000       0.008
   0.06450417  0.00000000  0.00000000       0.008
   0.09675626  0.00000000  0.00000000       0.008
   0.12900834  0.00000000  0.00000000       0.008
   0.03225209  0.03225209  0.00000000       0.016
   0.06450417  0.03225209  0.00000000       0.033
   0.09675626  0.03225209  0.00000000       0.033
   0.12900834  0.03225209  0.00000000       0.033
   0.06450417  0.06450417  0.00000000       0.016
   0.09675626  0.06450417  0.00000000       0.033
   0.12900834  0.06450417  0.00000000       0.033
   0.09675626  0.09675626  0.00000000       0.016
   0.12900834  0.09675626  0.00000000       0.033
   0.12900834  0.12900834  0.00000000       0.016
   0.03225209  0.03225209  0.03225209       0.011
   0.06450417  0.03225209  0.03225209       0.033
   0.09675626  0.03225209  0.03225209       0.033
   0.12900834  0.03225209  0.03225209       0.033
   0.06450417  0.06450417  0.03225209       0.033
   0.09675626  0.06450417  0.03225209       0.066
   0.12900834  0.06450417  0.03225209       0.066
   0.09675626  0.09675626  0.03225209       0.033
   0.12900834  0.09675626  0.03225209       0.066
   0.12900834  0.12900834  0.03225209       0.033
   0.06450417  0.06450417  0.06450417       0.011
   0.09675626  0.06450417  0.06450417       0.033
   0.12900834  0.06450417  0.06450417       0.033
   0.09675626  0.09675626  0.06450417       0.033
   0.12900834  0.09675626  0.06450417       0.066
   0.12900834  0.12900834  0.06450417       0.033
   0.09675626  0.09675626  0.09675626       0.011
   0.12900834  0.09675626  0.09675626       0.033
   0.12900834  0.12900834  0.09675626       0.033
   0.12900834  0.12900834  0.12900834       0.011
 
 k-points in reciprocal lattice and weights: KPOINTS created by Atomic Simulation Env
   0.00000000  0.00000000  0.00000000       0.001
   0.11111111  0.00000000  0.00000000       0.008
   0.22222222  0.00000000  0.00000000       0.008
   0.33333333  0.00000000  0.00000000       0.008
   0.44444444  0.00000000  0.00000000       0.008
   0.11111111  0.11111111  0.00000000       0.016
   0.22222222  0.11111111  0.00000000       0.033
   0.33333333  0.11111111  0.00000000       0.033
   0.44444444  0.11111111  0.00000000       0.033
   0.22222222  0.22222222  0.00000000       0.016
   0.33333333  0.22222222  0.00000000       0.033
   0.44444444  0.22222222  0.00000000       0.033
   0.33333333  0.33333333  0.00000000       0.016
   0.44444444  0.33333333  0.00000000       0.033
   0.44444444  0.44444444  0.00000000       0.016
   0.11111111  0.11111111  0.11111111       0.011
   0.22222222  0.11111111  0.11111111       0.033
   0.33333333  0.11111111  0.11111111       0.033
   0.44444444  0.11111111  0.11111111       0.033
   0.22222222  0.22222222  0.11111111       0.033
   0.33333333  0.22222222  0.11111111       0.066
   0.44444444  0.22222222  0.11111111       0.066
   0.33333333  0.33333333  0.11111111       0.033
   0.44444444  0.33333333  0.11111111       0.066
   0.44444444  0.44444444  0.11111111       0.033
   0.22222222  0.22222222  0.22222222       0.011
   0.33333333  0.22222222  0.22222222       0.033
   0.44444444  0.22222222  0.22222222       0.033
   0.33333333  0.33333333  0.22222222       0.033
   0.44444444  0.33333333  0.22222222       0.066
   0.44444444  0.44444444  0.22222222       0.033
   0.33333333  0.33333333  0.33333333       0.011
   0.44444444  0.33333333  0.33333333       0.033
   0.44444444  0.44444444  0.33333333       0.033
   0.44444444  0.44444444  0.44444444       0.011
 
 position of ions in fractional coordinates (direct lattice) 
   0.00000000  0.00000000  0.00000000
   0.50000000  0.50000000  0.00000000
   0.50000000  0.00000000  0.50000000
   0.00000000  0.50000000  0.50000000
 
 position of ions in cartesian coordinates  (Angst):
   0.00000000  0.00000000  0.00000000
   1.72254150  1.72254150  0.00000000
   1.72254150  0.00000000  1.72254150
   0.00000000  1.72254150  1.72254150
 


--------------------------------------------------------------------------------------------------------


 k-point   1 :   0.0000 0.0000 0.0000  plane waves:     461
 k-point   2 :   0.1111 0.0000 0.0000  plane waves:     473
 k-point   3 :   0.2222 0.0000 0.0000  plane waves:     478
 k-point   4 :   0.3333 0.0000 0.0000  plane waves:     478
 k-point   5 :   0.4444 0.0000 0.0000  plane waves:     482
 k-point   6 :   0.1111 0.1111 0.0000  plane waves:     473
 k-point   7 :   0.2222 0.1111 0.0000  plane waves:     475
 k-point   8 :   0.3333 0.1111 0.0000  plane waves:     479
 k-point   9 :   0.4444 0.1111 0.0000  plane waves:     479
 k-point  10 :   0.2222 0.2222 0.0000  plane waves:     475
 k-point  11 :   0.3333 0.2222 0.0000  plane waves:     479
 k-point  12 :   0.4444 0.2222 0.0000  plane waves:     481
 k-point  13 :   0.3333 0.3333 0.0000  plane waves:     493
 k-point  14 :   0.4444 0.3333 0.0000  plane waves:     489
 k-point  15 :   0.4444 0.4444 0.0000  plane waves:     484
 k-point  16 :   0.1111 0.1111 0.1111  plane waves:     473
 k-point  17 :   0.2222 0.1111 0.1111  plane waves:     483
 k-point  18 :   0.3333 0.1111 0.1111  plane waves:     482
 k-point  19 :   0.4444 0.1111 0.1111  plane waves:     480
 k-point  20 :   0.2222 0.2222 0.1111  plane waves:     485
 k-point  21 :   0.3333 0.2222 0.1111  plane waves:     480
 k-point  22 :   0.4444 0.2222 0.1111  plane waves:     478
 k-point  23 :   0.3333 0.3333 0.1111  plane waves:     488
 k-point  24 :   0.4444 0.3333 0.1111  plane waves:     486
 k-point  25 :   0.4444 0.4444 0.1111  plane waves:     494
 k-point  26 :   0.2222 0.2222 0.2222  plane waves:     486
 k-point  27 :   0.3333 0.2222 0.2222  plane waves:     481
 k-point  28 :   0.4444 0.2222 0.2222  plane waves:     483
 k-point  29 :   0.3333 0.3333 0.2222  plane waves:     478
 k-point  30 :   0.4444 0.3333 0.2222  plane waves:     487
 k-point  31 :   0.4444 0.4444 0.2222  plane waves:     492
 k-point  32 :   0.3333 0.3333 0.3333  plane waves:     486
 k-point  33 :   0.4444 0.3333 0.3333  plane waves:     481
 k-point  34 :   0.4444 0.4444 0.3333  plane waves:     483
 k-point  35 :   0.4444 0.4444 0.4444  plane waves:     480

 maximum number of plane-waves:       494
 maximum index in each direction: 
   IXMAX=    4   IYMAX=    4   IZMAX=    4
   IXMIN=   -5   IYMIN=   -5   IZMIN=   -5


 total amount of memory used by VASP MPI-rank0    47067. kBytes
=======================================================================

   base      :      30000. kBytes
   nonl-proj :       2521. kBytes
   grid      :       1806. kBytes
   one-center:         62. kBytes
   wavefun   :      12678. kBytes
 
     INWAV:  cpu time    0.0000: real time    0.0000
 Broyden mixing: mesh for mixing (old mesh)
   NGX =  9   NGY =  9   NGZ =  9
  (NGX  = 32   NGY  = 32   NGZ  = 32)
  gives a total of    729 points

 initial charge density was supplied:
 charge density of overlapping atoms calculated
 number of electron      32.0000000 magnetization 
 keeping initial charge density in first step


--------------------------------------------------------------------------------------------------------


 Maximum index for augmentation-charges         3431 (set IRDMAX)


--------------------------------------------------------------------------------------------------------


 First call to EWALD:  gamma=   0.514
 Maximum number of real-space cells 3x 3x 3
 Maximum number of reciprocal cells 3x 3x 3

    FEWALD:  cpu time    0.0011: real time    0.0011


--------------------------------------- Iteration      1(   1)  ---------------------------------------


    POTLOK:  cpu time    0.0079: real time    0.0079
    SETDIJ:  cpu time    0.0042: real time    0.0042
     EDDAV:  cpu time    0.5574: real time    0.5779
       DOS:  cpu time    0.0027: real time    0.0027
    --------------------------------------------
      LOOP:  cpu time    0.5722: real time    0.5927

 eigenvalue-minimisations  :  3080
 total energy-change (2. order) : 0.1621470E+03  (-0.8340560E+03)
 number of electron      32.0000000 magnetization 
 augmentation part       32.0000000 magnetization 

 Free energy of the ion-electron system (eV)
  ---------------------------------------------------
  alpha Z        PSCENC =       270.44909666
  Ewald energy   TEWEN  =     -2452.97223925
  -Hartree energ DENC   =      -414.53988425
  -exchange      EXHF   =         0.00000000
  -V(xc)+E(xc)   XCENC  =        16.92999131
  PAW double counting   =      2219.38341365    -2250.19294531
  entropy T*S    EENTRO =        -0.00739147
  eigenvalues    EBANDS =       395.94345996
  atomic energy  EATOM  =      2377.15350596
  Solvation  Ediel_sol  =         0.00000000
  ---------------------------------------------------
  free energy    TOTEN  =       162.14700729 eV

  energy without entropy =      162.15439875  energy(sigma->0) =      162.14947111


--------------------------------------------------------------------------------------------------------




--------------------------------------- Iteration      1(   2)  ---------------------------------------


     EDDAV:  cpu time    0.5253: real time    0.5253
       DOS:  cpu time    0.0030: real time    0.0030
    --------------------------------------------
      LOOP:  cpu time    0.5283: real time    0.5283

 eigenvalue-minimisations  :  2912
 total energy-change (2. order) :-0.1876099E+03  (-0.1645279E+03)
 number of electron      32.0000000 magnetization 
 augmentation part       32.0000000 magnetization 

 Free energy of the ion-electron system (eV)
  ---------------------------------------------------
  alpha Z        PSCENC =       270.44909666
  Ewald energy   TEWEN  =     -2452.97223925
  -Hartree energ DENC   =      -414.53988425
  -exchange      EXHF   =         0.00000000
  -V(xc)+E(xc)   XCENC  =        16.92999131
  PAW double counting   =      2219.38341365    -2250.19294531
  entropy T*S    EENTRO =         0.00365372
  eigenvalues    EBANDS =       208.32255313
  atomic energy  EATOM  =      2377.15350596
  Solvation  Ediel_sol  =         0.00000000
  ---------------------------------------------------
  free energy    TOTEN  =       -25.46285435 eV

  energy without entropy =      -25.46650808  energy(sigma->0) =      -25.46407226


--------------------------------------------------------------------------------------------------------




--------------------------------------- Iteration      1(   3)  ---------------------------------------


     EDDAV:  cpu time    0.5649: real time    0.5649
       DOS:  cpu time    0.0032: real time    0.0032
    --------------------------------------------
      LOOP:  cpu time    0.5681: real time    0.5681

 eigenvalue-minimisations  :  3216
 total energy-change (2. order) :-0.1292866E+02  (-0.1172145E+02)
 number of electron      32.0000000 magnetization 
 augmentation part       32.0000000 magnetization 

 Free energy of the ion-electron system (eV)
  ---------------------------------------------------
  alpha Z        PSCENC =       270.44909666
  Ewald energy   TEWEN  =     -2452.97223925
  -Hartree energ DENC   =      -414.53988425
  -exchange      EXHF   =         0.00000000
  -V(xc)+E(xc)   XCENC  =        16.92999131
  PAW double counting   =      2219.38341365    -2250.19294531
  entropy T*S    EENTRO =         0.00580299
  eigenvalues    EBANDS =       195.39174835
  atomic energy  EATOM  =      2377.15350596
  Solvation  Ediel_sol  =         0.00000000
  ---------------------------------------------------
  free energy    TOTEN  =       -38.39150987 eV

  energy without entropy =      -38.39731286  energy(sigma->0) =      -38.39344420


--------------------------------------------------------------------------------------------------------




--------------------------------------- Iteration      1(   4)  ---------------------------------------


     EDDAV:  cpu time    0.5387: real time    0.5387
       DOS:  cpu time    0.0033: real time    0.0033
    --------------------------------------------
      LOOP:  cpu time    0.5420: real time    0.5420

 eigenvalue-minimisations  :  3104
 total energy-change (2. order) :-0.1713557E+00  (-0.1710318E+00)
 number of electron      32.0000000 magnetization 
 augmentation part       32.0000000 magnetization 

 Free energy of the ion-electron system (eV)
  ---------------------------------------------------
  alpha Z        PSCENC =       270.44909666
  Ewald energy   TEWEN  =     -2452.97223925
  -Hartree energ DENC   =      -414.53988425
  -exchange      EXHF   =         0.00000000
  -V(xc)+E(xc)   XCENC  =        16.92999131
  PAW double counting   =      2219.38341365    -2250.19294531
  entropy T*S    EENTRO =         0.00607027
  eigenvalues    EBANDS =       195.22012535
  atomic energy  EATOM  =      2377.15350596
  Solvation  Ediel_sol  =         0.00000000
  ---------------------------------------------------
  free energy    TOTEN  =       -38.56286559 eV

  energy without entropy =      -38.56893586  energy(sigma->0) =      -38.56488901


--------------------------------------------------------------------------------------------------------




--------------------------------------- Iteration      1(   5)  ---------------------------------------


     EDDAV:  cpu time    0.5429: real time    0.5429
       DOS:  cpu time    0.0030: real time    0.0030
    CHARGE:  cpu time    0.0302: real time    0.0302
    MIXING:  cpu time    0.0003: real time    0.0003
    --------------------------------------------
      LOOP:  cpu time    0.5764: real time    0.5765

 eigenvalue-minimisations  :  3112
 total energy-change (2. order) :-0.1456899E-02  (-0.1456867E-02)
 number of electron      32.0000507 magnetization 
 augmentation part       14.1468269 magnetization 

 Broyden mixing:
  rms(total) = 0.23898E+01    rms(broyden)= 0.23896E+01
  rms(prec ) = 0.47024E+01
  weight for this iteration     100.00

 Free energy of the ion-electron system (eV)
  ---------------------------------------------------
  alpha Z        PSCENC =       270.44909666
  Ewald energy   TEWEN  =     -2452.97223925
  -Hartree energ DENC   =      -414.53988425
  -exchange      EXHF   =         0.00000000
  -V(xc)+E(xc)   XCENC  =        16.92999131
  PAW double counting   =      2219.38341365    -2250.19294531
  entropy T*S    EENTRO =         0.00607123
  eigenvalues    EBANDS =       195.21866749
  atomic energy  EATOM  =      2377.15350596
  Solvation  Ediel_sol  =         0.00000000
  ---------------------------------------------------
  free energy    TOTEN  =       -38.56432249 eV

  energy without entropy =      -38.57039372  energy(sigma->0) =      -38.56634623


--------------------------------------------------------------------------------------------------------




--------------------------------------- Iteration      1(   6)  ---------------------------------------


    POTLOK:  cpu time    0.0073: real time    0.0073
    SETDIJ:  cpu time    0.0042: real time    0.0042
     EDDAV:  cpu time    0.5536: real time    0.5536
       DOS:  cpu time    0.0034: real time    0.0034
    CHARGE:  cpu time    0.0296: real time    0.0296
    MIXING:  cpu time    0.0003: real time    0.0003
    --------------------------------------------
      LOOP:  cpu time    0.5983: real time    0.5983

 eigenvalue-minimisations  :  3208
 total energy-change (2. order) : 0.5804248E+01  (-0.1258972E+01)
 number of electron      32.0000599 magnetization 
 augmentation part       17.0029513 magnetization 

 Broyden mixing:
  rms(total) = 0.37601E+00    rms(broyden)= 0.37533E+00
  rms(prec ) = 0.71136E+00
  weight for this iteration     100.00

 eigenvalues of (default mixing * dielectric matrix)
  average eigenvalue GAMMA=   0.9172
  0.9172

 Free energy of the ion-electron system (eV)
  ---------------------------------------------------
  alpha Z        PSCENC =       270.44909666
  Ewald energy   TEWEN  =     -2452.97223925
  -Hartree energ DENC   =      -345.35103438
  -exchange      EXHF   =         0.00000000
  -V(xc)+E(xc)   XCENC  =        13.54425871
  PAW double counting   =      2505.11832150    -2526.92196927
  entropy T*S    EENTRO =         0.00222205
  eigenvalues    EBANDS =       126.21776373
  atomic energy  EATOM  =      2377.15350596
  Solvation  Ediel_sol  =         0.00000000
  ---------------------------------------------------
  free energy    TOTEN  =       -32.76007430 eV

  energy without entropy =      -32.76229635  energy(sigma->0) =      -32.76081498


--------------------------------------------------------------------------------------------------------




--------------------------------------- Iteration      1(   7)  ---------------------------------------


    POTLOK:  cpu time    0.0069: real time    0.0069
    SETDIJ:  cpu time    0.0041: real time    0.0041
     EDDAV:  cpu time    0.5848: real time    0.5849
       DOS:  cpu time    0.0033: real time    0.0033
    CHARGE:  cpu time    0.0302: real time    0.0302
    MIXING:  cpu time    0.0003: real time    0.0003
    --------------------------------------------
      LOOP:  cpu time    0.6296: real time    0.6297

 eigenvalue-minimisations  :  3408
 total energy-change (2. order) : 0.3446872E+00  (-0.1170655E+00)
 number of electron      32.0000578 magnetization 
 augmentation part       16.3562193 magnetization 

 Broyden mixing:
  rms(total) = 0.14830E+00    rms(broyden)= 0.14827E+00
  rms(prec ) = 0.33408E+00
  weight for this iteration     100.00

 eigenvalues of (default mixing * dielectric matrix)
  average eigenvalue GAMMA=   0.9740
  1.2080  0.7400

 Free energy of the ion-electron system (eV)
  ---------------------------------------------------
  alpha Z        PSCENC =       270.44909666
  Ewald energy   TEWEN  =     -2452.97223925
  -Hartree energ DENC   =      -353.88262302
  -exchange      EXHF   =         0.00000000
  -V(xc)+E(xc)   XCENC  =        14.04570991
  PAW double counting   =      2670.83129750    -2699.80177873
  entropy T*S    EENTRO =         0.00140664
  eigenvalues    EBANDS =       141.76023722
  atomic energy  EATOM  =      2377.15350596
  Solvation  Ediel_sol  =         0.00000000
  ---------------------------------------------------
  free energy    TOTEN  =       -32.41538711 eV

  energy without entropy =      -32.41679375  energy(sigma->0) =      -32.41585599


--------------------------------------------------------------------------------------------------------




--------------------------------------- Iteration      1(   8)  ---------------------------------------


    POTLOK:  cpu time    0.0069: real time    0.0069
    SETDIJ:  cpu time    0.0042: real time    0.0042
     EDDAV:  cpu time    0.6452: real time    0.6452
       DOS:  cpu time    0.0033: real time    0.0033
    CHARGE:  cpu time    0.0305: real time    0.0305
    MIXING:  cpu time    0.0003: real time    0.0003
    --------------------------------------------
      LOOP:  cpu time    0.6905: real time    0.6905

 eigenvalue-minimisations  :  3896
 total energy-change (2. order) : 0.5560442E-01  (-0.1255033E-02)
 number of electron      32.0000580 magnetization 
 augmentation part       16.4190330 magnetization 

 Broyden mixing:
  rms(total) = 0.63732E-01    rms(broyden)= 0.63731E-01
  rms(prec ) = 0.14590E+00
  weight for this iteration     100.00

 eigenvalues of (default mixing * dielectric matrix)
  average eigenvalue GAMMA=   1.4824
  0.7823  1.0738  2.5910

 Free energy of the ion-electron system (eV)
  ---------------------------------------------------
  alpha Z        PSCENC =       270.44909666
  Ewald energy   TEWEN  =     -2452.97223925
  -Hartree energ DENC   =      -349.53126841
  -exchange      EXHF   =         0.00000000
  -V(xc)+E(xc)   XCENC  =        13.86963478
  PAW double counting   =      2789.87861136    -2821.62190236
  entropy T*S    EENTRO =         0.00161453
  eigenvalues    EBANDS =       140.41316403
  atomic energy  EATOM  =      2377.15350596
  Solvation  Ediel_sol  =         0.00000000
  ---------------------------------------------------
  free energy    TOTEN  =       -32.35978269 eV

  energy without entropy =      -32.36139722  energy(sigma->0) =      -32.36032087


--------------------------------------------------------------------------------------------------------




--------------------------------------- Iteration      1(   9)  ---------------------------------------


    POTLOK:  cpu time    0.0069: real time    0.0069
    SETDIJ:  cpu time    0.0041: real time    0.0041
     EDDAV:  cpu time    0.6042: real time    0.6042
       DOS:  cpu time    0.0034: real time    0.0034
    CHARGE:  cpu time    0.0303: real time    0.0303
    MIXING:  cpu time    0.0004: real time    0.0004
    --------------------------------------------
      LOOP:  cpu time    0.6492: real time    0.6492

 eigenvalue-minimisations  :  3568
 total energy-change (2. order) : 0.2117431E-01  (-0.4205664E-03)
 number of electron      32.0000581 magnetization 
 augmentation part       16.4504897 magnetization 

 Broyden mixing:
  rms(total) = 0.95943E-02    rms(broyden)= 0.95912E-02
  rms(prec ) = 0.13258E-01
  weight for this iteration     100.00

 eigenvalues of (default mixing * dielectric matrix)
  average eigenvalue GAMMA=   1.5049
  0.7809  1.0329  2.3379  1.8677

 Free energy of the ion-electron system (eV)
  ---------------------------------------------------
  alpha Z        PSCENC =       270.44909666
  Ewald energy   TEWEN  =     -2452.97223925
  -Hartree energ DENC   =      -345.17437257
  -exchange      EXHF   =         0.00000000
  -V(xc)+E(xc)   XCENC  =        13.70854514
  PAW double counting   =      2942.58648963    -2977.99351496
  entropy T*S    EENTRO =         0.00145372
  eigenvalues    EBANDS =       139.90242727
  atomic energy  EATOM  =      2377.15350596
  Solvation  Ediel_sol  =         0.00000000
  ---------------------------------------------------
  free energy    TOTEN  =       -32.33860838 eV

  energy without entropy =      -32.34006211  energy(sigma->0) =      -32.33909296


--------------------------------------------------------------------------------------------------------




--------------------------------------- Iteration      1(  10)  ---------------------------------------


    POTLOK:  cpu time    0.0069: real time    0.0069
    SETDIJ:  cpu time    0.0041: real time    0.0041
     EDDAV:  cpu time    0.5428: real time    0.5429
       DOS:  cpu time    0.0033: real time    0.0033
    CHARGE:  cpu time    0.0302: real time    0.0302
    MIXING:  cpu time    0.0004: real time    0.0004
    --------------------------------------------
      LOOP:  cpu time    0.5877: real time    0.5878

 eigenvalue-minimisations  :  3136
 total energy-change (2. order) :-0.2427024E-05  (-0.6292579E-04)
 number of electron      32.0000581 magnetization 
 augmentation part       16.4482917 magnetization 

 Broyden mixing:
  rms(total) = 0.31907E-02    rms(broyden)= 0.31901E-02
  rms(prec ) = 0.34132E-02
  weight for this iteration     100.00

 eigenvalues of (default mixing * dielectric matrix)
  average eigenvalue GAMMA=   1.7111
  2.8495  2.8495  1.1360  0.9369  0.7837

 Free energy of the ion-electron system (eV)
  ---------------------------------------------------
  alpha Z        PSCENC =       270.44909666
  Ewald energy   TEWEN  =     -2452.97223925
  -Hartree energ DENC   =      -345.48880111
  -exchange      EXHF   =         0.00000000
  -V(xc)+E(xc)   XCENC  =        13.72146228
  PAW double counting   =      2935.37309338    -2970.48088456
  entropy T*S    EENTRO =         0.00146063
  eigenvalues    EBANDS =       139.90469519
  atomic energy  EATOM  =      2377.15350596
  Solvation  Ediel_sol  =         0.00000000
  ---------------------------------------------------
  free energy    TOTEN  =       -32.33861081 eV

  energy without entropy =      -32.34007145  energy(sigma->0) =      -32.33909769


--------------------------------------------------------------------------------------------------------




--------------------------------------- Iteration      1(  11)  ---------------------------------------


    POTLOK:  cpu time    0.0070: real time    0.0070
    SETDIJ:  cpu time    0.0041: real time    0.0041
     EDDAV:  cpu time    0.5917: real time    0.5917
       DOS:  cpu time    0.0032: real time    0.0032
    CHARGE:  cpu time    0.0302: real time    0.0302
    MIXING:  cpu time    0.0004: real time    0.0004
    --------------------------------------------
      LOOP:  cpu time    0.6366: real time    0.6366

 eigenvalue-minimisations  :  3496
 total energy-change (2. order) :-0.6416620E-05  (-0.7784047E-06)
 number of electron      32.0000581 magnetization 
 augmentation part       16.4498560 magnetization 

 Broyden mixing:
  rms(total) = 0.21741E-02    rms(broyden)= 0.21740E-02
  rms(prec ) = 0.31147E-02
  weight for this iteration     100.00

 eigenvalues of (default mixing * dielectric matrix)
  average eigenvalue GAMMA=   1.5237
  2.5926  2.4437  1.3508  0.7848  0.9269  1.0433

 Free energy of the ion-electron system (eV)
  ---------------------------------------------------
  alpha Z        PSCENC =       270.44909666
  Ewald energy   TEWEN  =     -2452.97223925
  -Hartree energ DENC   =      -345.63144011
  -exchange      EXHF   =         0.00000000
  -V(xc)+E(xc)   XCENC  =        13.72732137
  PAW double counting   =      2934.47647067    -2969.39709159
  entropy T*S    EENTRO =         0.00144911
  eigenvalues    EBANDS =       139.85430995
  atomic energy  EATOM  =      2377.15350596
  Solvation  Ediel_sol  =         0.00000000
  ---------------------------------------------------
  free energy    TOTEN  =       -32.33861723 eV

  energy without entropy =      -32.34006633  energy(sigma->0) =      -32.33910026


--------------------------------------------------------------------------------------------------------




--------------------------------------- Iteration      1(  12)  ---------------------------------------


    POTLOK:  cpu time    0.0071: real time    0.0071
    SETDIJ:  cpu time    0.0042: real time    0.0042
     EDDAV:  cpu time    0.5725: real time    0.5725
       DOS:  cpu time    0.0033: real time    0.0033
    --------------------------------------------
      LOOP:  cpu time    0.5870: real time    0.5870

 eigenvalue-minimisations  :  3352
 total energy-change (2. order) :-0.1296348E-06  (-0.7098924E-06)
 number of electron      32.0000581 magnetization 
 augmentation part       16.4498560 magnetization 

 Free energy of the ion-electron system (eV)
  ---------------------------------------------------
  alpha Z        PSCENC =       270.44909666
  Ewald energy   TEWEN  =     -2452.97223925
  -Hartree energ DENC   =      -345.52122553
  -exchange      EXHF   =         0.00000000
  -V(xc)+E(xc)   XCENC  =        13.72334125
  PAW double counting   =      2938.58120932    -2973.63549777
  entropy T*S    EENTRO =         0.00144918
  eigenvalues    EBANDS =       139.88174281
  atomic energy  EATOM  =      2377.15350596
  Solvation  Ediel_sol  =         0.00000000
  ---------------------------------------------------
  free energy    TOTEN  =       -32.33861736 eV

  energy without entropy =      -32.34006654  energy(sigma->0) =      -32.33910042


--------------------------------------------------------------------------------------------------------




 average (electrostatic) potential at core
  the test charge radii are     1.0103
  (the norm of the test charge is              1.0000)
       1 -42.6652       2 -42.6652       3 -42.6652       4 -42.6652
 
 
 
 E-fermi :   6.8024     XC(G=0): -13.7778     alpha+bet :-15.1637

 Fermi energy:         6.8024267748

 k-point     1 :       0.0000    0.0000    0.0000
  band No.  band energies     occupation 
      1      -2.0276      2.00000
      2       1.8681      2.00000
      3       1.8681      2.00000
      4       1.8681      2.00000
      5       2.6127      2.00000
      6       2.6127      2.00000
      7       2.6127      2.00000
      8       5.1833      2.00000
      9       5.1833      2.00000
     10       5.1833      2.00000
     11       6.7431      1.47856
     12       6.7431      1.47856
     13       7.7809     -0.00000
     14       7.7809     -0.00000
     15       7.7809     -0.00000
     16       8.0830     -0.00000
     17       8.0830     -0.00000
     18       8.0830     -0.00000
     19       8.0830     -0.00000
     20       8.0830     -0.00000
     21       8.0830     -0.00000
     22      10.0793     -0.00000
     23      10.0793     -0.00000
     24      10.0793     -0.00000
     25      18.5777      0.00000
     26      18.5777      0.00000
     27      18.5777      0.00000
     28      23.0856      0.00000
     29      23.0856      0.00000
     30      23.0856      0.00000
     31      23.0856      0.00000
     32      23.0856      0.00000
     33      23.0856      0.00000
     34      28.5177      0.00000
     35      28.5177      0.00000
     36      28.5177      0.00000
     37      30.1535      0.00000
     38      33.4313      0.00000
     39      33.4313      0.00000
     40      33.4313      0.00000

 k-point     2 :       0.1111    0.0000    0.0000
  band No.  band energies     occupation 
      1      -1.8519      2.00000
      2       1.9085      2.00000
      3       1.9763      2.00000
      4       1.9763      2.00000
      5       2.6807      2.00000
      6       2.6923      2.00000
      7       2.6923      2.00000
      8       5.0938      2.00000
      9       5.2473      2.00000
     10       5.2473      2.00000
     11       6.6600      1.92805
     12       6.7727      1.24859
     13       7.4476     -0.00005
     14       7.4476     -0.00005
     15       7.6725     -0.00000
     16       7.6725     -0.00000
     17       7.7482     -0.00000
     18       7.9591     -0.00000
     19       7.9591     -0.00000
     20       8.0832     -0.00000
     21       8.0832     -0.00000
     22       9.3866     -0.00000
     23      10.8358     -0.00000
     24      10.8358     -0.00000
     25      18.5757      0.00000
     26      18.5757      0.00000
     27      19.4905      0.00000
     28      22.3279      0.00000
     29      22.3279      0.00000
     30      22.6848      0.00000
     31      22.6848      0.00000
     32      23.3797      0.00000
     33      23.3797      0.00000
     34      28.5369      0.00000
     35      29.4249      0.00000
     36      29.4249      0.00000
     37      30.0306      0.00000
     38      33.4996      0.00000
     39      34.2524      0.00000
     40      34.2525      0.00000

 k-point     3 :       0.2222    0.0000    0.0000
  band No.  band energies     occupation 
      1      -1.3382      2.00000
      2       1.9776      2.00000
      3       2.2744      2.00000
      4       2.2744      2.00000
      5       2.8793      2.00000
      6       2.9309      2.00000
      7       2.9309      2.00000
      8       4.8420      2.00000
      9       5.4381      2.00000
     10       5.4381      2.00000
     11       6.4204      2.02115
     12       6.4204      2.02115
     13       6.4302      2.02439
     14       6.8593      0.53977
     15       7.3708     -0.00044
     16       7.3708     -0.00044
     17       7.6225     -0.00000
     18       7.6225     -0.00000
     19       7.6547     -0.00000
     20       7.9463     -0.00000
     21       8.0838     -0.00000
     22       8.0838     -0.00000
     23      12.2242     -0.00000
     24      12.2242     -0.00000
     25      18.5732      0.00000
     26      18.5732      0.00000
     27      20.7604      0.00000
     28      20.7604      0.00000
     29      21.6043      0.00000
     30      21.8345      0.00000
     31      21.8345      0.00000
     32      24.2227      0.00000
     33      24.2227      0.00000
     34      28.5970      0.00000
     35      29.7349      0.00000
     36      31.4474      0.00000
     37      31.4474      0.00000
     38      32.7833      0.00000
     39      32.9803      0.00000
     40      32.9803      0.00000

 k-point     4 :       0.3333    0.0000    0.0000
  band No.  band energies     occupation 
      1      -0.5340      2.00000
      2       1.8907      2.00000
      3       2.6710      2.00000
      4       2.6710      2.00000
      5       3.1918      2.00000
      6       3.3284      2.00000
      7       3.3284      2.00000
      8       4.4696      2.00000
      9       5.4443      2.00000
     10       5.4443      2.00000
     11       5.7473      2.00000
     12       5.7473      2.00000
     13       6.1158      2.00001
     14       6.6087      2.04315
     15       6.9640      0.01588
     16       6.9640      0.01588
     17       6.9933     -0.03944
     18       7.1539     -0.03225
     19       7.1539     -0.03225
     20       7.5120     -0.00001
     21       8.0846     -0.00000
     22       8.0846     -0.00000
     23      13.7982      0.00000
     24      13.7982      0.00000
     25      18.5772      0.00000
     26      18.5772      0.00000
     27      19.0032      0.00000
     28      19.0032      0.00000
     29      21.0470      0.00000
     30      21.0470      0.00000
     31      24.1426      0.00000
     32      25.5140      0.00000
     33      25.5140      0.00000
     34      28.7010      0.00000
     35      29.3978      0.00000
     36      30.8856      0.00000
     37      30.9912      0.00000
     38      30.9912      0.00000
     39      33.9986      0.00000
     40      33.9986      0.00000

 k-point     5 :       0.4444    0.0000    0.0000
  band No.  band energies     occupation 
      1       0.4499      2.00000
      2       1.3721      2.00000
      3       2.9820      2.00000
      4       2.9820      2.00000
      5       3.5898      2.00000
      6       3.8831      2.00000
      7       3.8831      2.00000
      8       4.0328      2.00000
      9       4.5913      2.00000
     10       4.5913      2.00000
     11       5.8496      2.00000
     12       5.8984      2.00000
     13       6.1587      2.00005
     14       6.1587      2.00005
     15       6.6428      1.97918
     16       6.6428      1.97918
     17       6.6432      1.97800
     18       6.6432      1.97800
     19       7.1599     -0.02982
     20       7.3401     -0.00096
     21       8.0848     -0.00000
     22       8.0848     -0.00000
     23      15.4733      0.00000
     24      15.4733      0.00000
     25      17.2191      0.00000
     26      17.2191      0.00000
     27      18.5819      0.00000
     28      18.5819      0.00000
     29      20.5984      0.00000
     30      20.5984      0.00000
     31      26.6650      0.00000
     32      27.1455      0.00000
     33      27.1455      0.00000
     34      28.8732      0.00000
     35      28.9122      0.00000
     36      29.0070      0.00000
     37      29.0070      0.00000
     38      29.1014      0.00000
     39      35.5250      0.00000
     40      36.8954      0.00000

 k-point     6 :       0.1111    0.1111    0.0000
  band No.  band energies     occupation 
      1      -1.6786      2.00000
      2       2.0193      2.00000
      3       2.0193      2.00000
      4       2.0802      2.00000
      5       2.7579      2.00000
      6       2.7579      2.00000
      7       2.7679      2.00000
      8       5.0433      2.00000
      9       5.2773      2.00000
     10       5.2995      2.00000
     11       6.6375      1.99220
     12       6.7557      1.38410
     13       7.0857     -0.06232
     14       7.2363     -0.00891
     15       7.2363     -0.00891
     16       7.5735     -0.00000
     17       7.6759     -0.00000
     18       7.6759     -0.00000
     19       7.9588     -0.00000
     20       7.9588     -0.00000
     21       8.0057     -0.00000
     22      10.1717     -0.00000
     23      10.1717     -0.00000
     24      11.3976     -0.00000
     25      18.5381      0.00000
     26      19.5110      0.00000
     27      19.5110      0.00000
     28      20.8460      0.00000
     29      22.5939      0.00000
     30      22.5939      0.00000
     31      22.9661      0.00000
     32      22.9661      0.00000
     33      23.6607      0.00000
     34      29.4750      0.00000
     35      29.4750      0.00000
     36      29.5533      0.00000
     37      29.7569      0.00000
     38      32.7316      0.00000
     39      34.3258      0.00000
     40      34.3258      0.00000

 k-point     7 :       0.2222    0.1111    0.0000
  band No.  band energies     occupation 
      1      -1.1722      2.00000
      2       2.0955      2.00000
      3       2.3254      2.00000
      4       2.3678      2.00000
      5       2.9492      2.00000
      6       2.9890      2.00000
      7       2.9923      2.00000
      8       4.8221      2.00000
      9       5.4475      2.00000
     10       5.4487      2.00000
     11       6.2253      2.00035
     12       6.2651      2.00097
     13       6.4493      2.03157
     14       6.7111      1.69077
     15       6.8453      0.64616
     16       7.2951     -0.00273
     17       7.3788     -0.00036
     18       7.5772     -0.00000
     19       7.6213     -0.00000
     20       7.9582     -0.00000
     21       7.9633     -0.00000
     22       8.9079     -0.00000
     23      11.4662     -0.00000
     24      12.6252      0.00000
     25      18.2144      0.00000
     26      19.4927      0.00000
     27      19.5683      0.00000
     28      21.0033      0.00000
     29      21.6105      0.00000
     30      22.1085      0.00000
     31      23.3440      0.00000
     32      23.5599      0.00000
     33      23.8055      0.00000
     34      29.0814      0.00000
     35      29.6347      0.00000
     36      30.7582      0.00000
     37      30.8034      0.00000
     38      31.5356      0.00000
     39      33.6229      0.00000
     40      34.5905      0.00000

 k-point     8 :       0.3333    0.1111    0.0000
  band No.  band energies     occupation 
      1      -0.3798      2.00000
      2       2.0171      2.00000
      3       2.7372      2.00000
      4       2.7599      2.00000
      5       3.2498      2.00000
      6       3.3527      2.00000
      7       3.3731      2.00000
      8       4.4718      2.00000
      9       5.2858      2.00000
     10       5.3841      2.00000
     11       5.6253      2.00000
     12       5.7518      2.00000
     13       6.0151      2.00000
     14       6.2326      2.00042
     15       6.9170      0.18505
     16       6.9785     -0.01567
     17       7.0137     -0.06004
     18       7.1529     -0.03267
     19       7.2949     -0.00274
     20       7.9452     -0.00000
     21       7.9539     -0.00000
     22       7.9567     -0.00000
     23      12.8515      0.00000
     24      14.1179      0.00000
     25      17.0628      0.00000
     26      19.1537      0.00000
     27      19.2403      0.00000
     28      19.6083      0.00000
     29      21.4069      0.00000
     30      22.6976      0.00000
     31      23.8849      0.00000
     32      24.4522      0.00000
     33      25.3332      0.00000
     34      28.1659      0.00000
     35      29.0038      0.00000
     36      29.9412      0.00000
     37      32.3744      0.00000
     38      32.7669      0.00000
     39      33.0396      0.00000
     40      34.0956      0.00000

 k-point     9 :       0.4444    0.1111    0.0000
  band No.  band energies     occupation 
      1       0.5903      2.00000
      2       1.5032      2.00000
      3       3.0699      2.00000
      4       3.0797      2.00000
      5       3.6319      2.00000
      6       3.8378      2.00000
      7       3.9070      2.00000
      8       4.0559      2.00000
      9       4.4802      2.00000
     10       4.5832      2.00000
     11       5.5824      2.00000
     12       5.5917      2.00000
     13       6.1600      2.00005
     14       6.3568      2.00715
     15       6.6251      2.01808
     16       6.6425      1.98001
     17       6.6500      1.95955
     18       6.7990      1.02885
     19       7.2315     -0.00972
     20       7.4990     -0.00001
     21       7.9533     -0.00000
     22       7.9546     -0.00000
     23      14.2571      0.00000
     24      15.6633      0.00000
     25      15.7493      0.00000
     26      17.4691      0.00000
     27      19.2678      0.00000
     28      19.4908      0.00000
     29      21.2994      0.00000
     30      21.8196      0.00000
     31      25.6837      0.00000
     32      25.7454      0.00000
     33      27.0395      0.00000
     34      27.3168      0.00000
     35      27.7023      0.00000
     36      30.2974      0.00000
     37      30.4495      0.00000
     38      31.2530      0.00000
     39      35.8646      0.00000
     40      36.3024      0.00000

 k-point    10 :       0.2222    0.2222    0.0000
  band No.  band energies     occupation 
      1      -0.6880      2.00000
      2       2.4248      2.00000
      3       2.4248      2.00000
      4       2.6279      2.00000
      5       3.1579      2.00000
      6       3.1579      2.00000
      7       3.1717      2.00000
      8       4.7055      2.00000
      9       5.4772      2.00000
     10       5.5471      2.00000
     11       5.7614      2.00000
     12       5.7614      2.00000
     13       5.8169      2.00000
     14       6.3851      2.01196
     15       6.9335      0.11322
     16       7.0766     -0.06556
     17       7.3117     -0.00188
     18       7.3117     -0.00188
     19       7.6185     -0.00000
     20       7.6185     -0.00000
     21       7.7779     -0.00000
     22      10.0578     -0.00000
     23      10.0578     -0.00000
     24      13.6312      0.00000
     25      16.7155      0.00000
     26      19.1839      0.00000
     27      21.4986      0.00000
     28      21.4986      0.00000
     29      21.6820      0.00000
     30      21.6820      0.00000
     31      23.1124      0.00000
     32      23.1124      0.00000
     33      25.2538      0.00000
     34      27.8452      0.00000
     35      28.8852      0.00000
     36      30.1282      0.00000
     37      31.7877      0.00000
     38      31.7877      0.00000
     39      34.4744      0.00000
     40      36.6092      0.00000

 k-point    11 :       0.3333    0.2222    0.0000
  band No.  band energies     occupation 
      1       0.0679      2.00000
      2       2.3725      2.00000
      3       2.8818      2.00000
      4       3.0008      2.00000
      5       3.4216      2.00000
      6       3.4329      2.00000
      7       3.5019      2.00000
      8       4.4519      2.00000
      9       4.9247      2.00000
     10       5.1954      2.00000
     11       5.2812      2.00000
     12       5.4708      2.00000
     13       5.7983      2.00000
     14       6.2587      2.00083
     15       6.7699      1.27165
     16       6.9391      0.09201
     17       7.0764     -0.06564
     18       7.1507     -0.03356
     19       7.1981     -0.01715
     20       7.6155     -0.00000
     21       7.6726     -0.00000
     22       8.8520     -0.00000
     23      11.2270     -0.00000
     24      14.9726      0.00000
     25      15.0979      0.00000
     26      19.3407      0.00000
     27      19.9069      0.00000
     28      20.9427      0.00000
     29      22.6855      0.00000
     30      22.9913      0.00000
     31      23.0457      0.00000
     32      25.3136      0.00000
     33      25.3590      0.00000
     34      26.5190      0.00000
     35      27.1702      0.00000
     36      31.4097      0.00000
     37      32.2246      0.00000
     38      34.2180      0.00000
     39      34.3831      0.00000
     40      34.3929      0.00000

 k-point    12 :       0.4444    0.2222    0.0000
  band No.  band energies     occupation 
      1       0.9929      2.00000
      2       1.8728      2.00000
      3       3.2900      2.00000
      4       3.3544      2.00000
      5       3.7197      2.00000
      6       3.7529      2.00000
      7       3.9728      2.00000
      8       4.1132      2.00000
      9       4.2230      2.00000
     10       4.5511      2.00000
     11       5.1220      2.00000
     12       5.2954      2.00000
     13       6.1790      2.00010
     14       6.3635      2.00811
     15       6.5425      2.06936
     16       6.6105      2.04087
     17       6.6472      1.96748
     18       6.7016      1.74490
     19       7.5691     -0.00000
     20       7.6161     -0.00000
     21       7.6295     -0.00000
     22       8.0697     -0.00000
     23      12.4172      0.00000
     24      13.6800      0.00000
     25      16.5064      0.00000
     26      18.1669      0.00000
     27      19.6909      0.00000
     28      20.2383      0.00000
     29      23.5826      0.00000
     30      23.8875      0.00000
     31      24.2703      0.00000
     32      24.4368      0.00000
     33      25.1860      0.00000
     34      25.6417      0.00000
     35      28.2465      0.00000
     36      31.2548      0.00000
     37      32.8584      0.00000
     38      33.6447      0.00000
     39      34.0550      0.00000
     40      37.0038      0.00000

 k-point    13 :       0.3333    0.3333    0.0000
  band No.  band energies     occupation 
      1       0.7597      2.00000
      2       2.8756      2.00000
      3       2.8756      2.00000
      4       3.3173      2.00000
      5       3.5706      2.00000
      6       3.6986      2.00000
      7       3.6986      2.00000
      8       4.3561      2.00000
      9       4.6436      2.00000
     10       4.6436      2.00000
     11       4.8774      2.00000
     12       5.3323      2.00000
     13       5.9558      2.00000
     14       6.1317      2.00002
     15       6.5394      2.06870
     16       6.7419      1.48740
     17       6.7419      1.48740
     18       7.1558     -0.03148
     19       7.1558     -0.03148
     20       7.4169     -0.00012
     21       7.5958     -0.00000
     22       9.8172     -0.00000
     23       9.8172     -0.00000
     24      13.3900      0.00000
     25      16.1777      0.00000
     26      19.6630      0.00000
     27      20.9014      0.00000
     28      20.9014      0.00000
     29      21.8784      0.00000
     30      21.8784      0.00000
     31      24.9466      0.00000
     32      25.5327      0.00000
     33      25.7839      0.00000
     34      25.7839      0.00000
     35      27.5917      0.00000
     36      30.4456      0.00000
     37      34.6136      0.00000
     38      34.8910      0.00000
     39      34.8910      0.00000
     40      36.0005      0.00000

 k-point    14 :       0.4444    0.3333    0.0000
  band No.  band energies     occupation 
      1       1.5969      2.00000
      2       2.4001      2.00000
      3       3.3570      2.00000
      4       3.5548      2.00000
      5       3.7468      2.00000
      6       3.9350      2.00000
      7       4.0620      2.00000
      8       4.1266      2.00000
      9       4.1709      2.00000
     10       4.4752      2.00000
     11       4.7476      2.00000
     12       5.0770      2.00000
     13       6.1562      2.00005
     14       6.2582      2.00081
     15       6.3590      2.00745
     16       6.4196      2.02088
     17       6.4366      2.02668
     18       6.6774      1.86205
     19       7.1835     -0.02144
     20       7.2588     -0.00580
     21       8.1235     -0.00000
     22       8.8146     -0.00000
     23      10.8400     -0.00000
     24      11.9936     -0.00000
     25      17.6110      0.00000
     26      19.1988      0.00000
     27      20.1738      0.00000
     28      20.9098      0.00000
     29      22.1157      0.00000
     30      22.9069      0.00000
     31      23.4786      0.00000
     32      24.1167      0.00000
     33      26.5191      0.00000
     34      27.4518      0.00000
     35      28.8574      0.00000
     36      32.0202      0.00000
     37      32.3369      0.00000
     38      35.3918      0.00000
     39      35.5493      0.00000
     40      36.1788      0.00000

 k-point    15 :       0.4444    0.4444    0.0000
  band No.  band energies     occupation 
      1       2.2922      2.00000
      2       2.9349      2.00000
      3       2.9349      2.00000
      4       3.3209      2.00000
      5       4.1450      2.00000
      6       4.1450      2.00000
      7       4.1493      2.00000
      8       4.1874      2.00000
      9       4.3375      2.00000
     10       4.4617      2.00000
     11       4.4617      2.00000
     12       4.8371      2.00000
     13       6.0262      2.00000
     14       6.1590      2.00005
     15       6.1691      2.00007
     16       6.1691      2.00007
     17       6.4478      2.03096
     18       6.7675      1.29031
     19       6.7675      1.29031
     20       6.9563      0.03646
     21       8.8008     -0.00000
     22       9.6594     -0.00000
     23       9.6594     -0.00000
     24      10.6774     -0.00000
     25      18.9552      0.00000
     26      20.4685      0.00000
     27      20.4685      0.00000
     28      20.8475      0.00000
     29      21.7541      0.00000
     30      21.7541      0.00000
     31      21.9043      0.00000
     32      22.8192      0.00000
     33      29.6893      0.00000
     34      29.6893      0.00000
     35      30.4310      0.00000
     36      31.1292      0.00000
     37      32.5012      0.00000
     38      33.5464      0.00000
     39      34.0740      0.00000
     40      34.0740      0.00000

 k-point    16 :       0.1111    0.1111    0.1111
  band No.  band energies     occupation 
      1      -1.5082      2.00000
      2       2.1245      2.00000
      3       2.1245      2.00000
      4       2.1245      2.00000
      5       2.8314      2.00000
      6       2.8314      2.00000
      7       2.8314      2.00000
      8       4.9990      2.00000
      9       5.3222      2.00000
     10       5.3222      2.00000
     11       6.6834      1.83570
     12       6.6834      1.83570
     13       6.9024      0.26016
     14       6.9024      0.26016
     15       6.9024      0.26016
     16       7.4606     -0.00003
     17       7.4606     -0.00003
     18       7.4606     -0.00003
     19       7.9791     -0.00000
     20       7.9791     -0.00000
     21       7.9791     -0.00000
     22      10.6983     -0.00000
     23      10.6983     -0.00000
     24      10.6983     -0.00000
     25      19.4741      0.00000
     26      19.4741      0.00000
     27      19.4741      0.00000
     28      21.1369      0.00000
     29      21.1369      0.00000
     30      21.1369      0.00000
     31      23.9377      0.00000
     32      23.9377      0.00000
     33      23.9377      0.00000
     34      29.1945      0.00000
     35      29.6001      0.00000
     36      29.6001      0.00000
     37      29.6001      0.00000
     38      32.1919      0.00000
     39      35.1994      0.00000
     40      35.1998      0.00000

 k-point    17 :       0.2222    0.1111    0.1111
  band No.  band energies     occupation 
      1      -1.0106      2.00000
      2       2.2040      2.00000
      3       2.4165      2.00000
      4       2.4165      2.00000
      5       3.0171      2.00000
      6       3.0487      2.00000
      7       3.0487      2.00000
      8       4.8055      2.00000
      9       5.4470      2.00000
     10       5.4581      2.00000
     11       6.0942      2.00001
     12       6.0942      2.00001
     13       6.3953      2.01422
     14       6.4991      2.05383
     15       6.8140      0.90194
     16       7.1705     -0.02586
     17       7.2117     -0.01373
     18       7.2117     -0.01373
     19       7.8833     -0.00000
     20       7.9325     -0.00000
     21       7.9325     -0.00000
     22       9.3483     -0.00000
     23      11.8041     -0.00000
     24      11.8041     -0.00000
     25      18.8739      0.00000
     26      18.8739      0.00000
     27      20.1435      0.00000
     28      20.1435      0.00000
     29      21.2496      0.00000
     30      22.2575      0.00000
     31      23.8024      0.00000
     32      23.8024      0.00000
     33      24.7381      0.00000
     34      27.9682      0.00000
     35      29.7459      0.00000
     36      30.8191      0.00000
     37      30.8191      0.00000
     38      31.1989      0.00000
     39      33.3937      0.00000
     40      35.5892      0.00000

 k-point    18 :       0.3333    0.1111    0.1111
  band No.  band energies     occupation 
      1      -0.2327      2.00000
      2       2.1279      2.00000
      3       2.8195      2.00000
      4       2.8195      2.00000
      5       3.3101      2.00000
      6       3.3905      2.00000
      7       3.3905      2.00000
      8       4.4806      2.00000
      9       5.2536      2.00000
     10       5.2536      2.00000
     11       5.5807      2.00000
     12       5.6851      2.00000
     13       5.7662      2.00000
     14       6.3676      2.00876
     15       6.7846      1.15023
     16       6.8785      0.40465
     17       6.8785      0.40465
     18       7.0108     -0.05790
     19       7.7142     -0.00000
     20       7.8901     -0.00000
     21       7.8901     -0.00000
     22       8.1316     -0.00000
     23      13.0746      0.00000
     24      13.0746      0.00000
     25      17.4861      0.00000
     26      17.4861      0.00000
     27      20.2093      0.00000
     28      20.2093      0.00000
     29      22.5318      0.00000
     30      22.9195      0.00000
     31      22.9195      0.00000
     32      24.6217      0.00000
     33      25.9818      0.00000
     34      26.5661      0.00000
     35      30.0565      0.00000
     36      30.1803      0.00000
     37      31.3916      0.00000
     38      33.1130      0.00000
     39      33.1130      0.00000
     40      34.2058      0.00000

 k-point    19 :       0.4444    0.1111    0.1111
  band No.  band energies     occupation 
      1       0.7193      2.00000
      2       1.6179      2.00000
      3       3.1662      2.00000
      4       3.1662      2.00000
      5       3.6806      2.00000
      6       3.8007      2.00000
      7       3.8007      2.00000
      8       4.0870      2.00000
      9       4.5483      2.00000
     10       4.5483      2.00000
     11       5.4260      2.00000
     12       5.4868      2.00000
     13       5.9969      2.00000
     14       6.3753      2.01007
     15       6.5949      2.05724
     16       6.5949      2.05724
     17       6.6253      2.01761
     18       7.2358     -0.00899
     19       7.2470     -0.00730
     20       7.4918     -0.00001
     21       7.8718     -0.00000
     22       7.8718     -0.00000
     23      14.2900      0.00000
     24      14.2900      0.00000
     25      16.1952      0.00000
     26      16.1952      0.00000
     27      20.4959      0.00000
     28      20.4959      0.00000
     29      22.1301      0.00000
     30      22.1301      0.00000
     31      23.7993      0.00000
     32      25.1545      0.00000
     33      27.1303      0.00000
     34      27.5720      0.00000
     35      29.0036      0.00000
     36      29.4089      0.00000
     37      30.7186      0.00000
     38      32.1418      0.00000
     39      35.8365      0.00000
     40      35.8365      0.00000

 k-point    20 :       0.2222    0.2222    0.1111
  band No.  band energies     occupation 
      1      -0.5397      2.00000
      2       2.5045      2.00000
      3       2.5045      2.00000
      4       2.6683      2.00000
      5       3.2178      2.00000
      6       3.2178      2.00000
      7       3.2225      2.00000
      8       4.7076      2.00000
      9       5.4748      2.00000
     10       5.5126      2.00000
     11       5.6717      2.00000
     12       5.6717      2.00000
     13       5.6939      2.00000
     14       6.4996      2.05404
     15       6.8809      0.38913
     16       6.9148      0.19570
     17       6.9552      0.03960
     18       6.9552      0.03960
     19       7.8362     -0.00000
     20       7.8362     -0.00000
     21       7.8428     -0.00000
     22      10.2871     -0.00000
     23      10.2871     -0.00000
     24      12.6187      0.00000
     25      17.1708      0.00000
     26      19.7652      0.00000
     27      19.7652      0.00000
     28      20.1901      0.00000
     29      22.1762      0.00000
     30      22.1762      0.00000
     31      24.5314      0.00000
     32      24.5314      0.00000
     33      25.4901      0.00000
     34      26.3287      0.00000
     35      30.1617      0.00000
     36      30.2806      0.00000
     37      31.0284      0.00000
     38      31.0284      0.00000
     39      33.9845      0.00000
     40      36.3079      0.00000

 k-point    21 :       0.3333    0.2222    0.1111
  band No.  band energies     occupation 
      1       0.1927      2.00000
      2       2.4302      2.00000
      3       2.9235      2.00000
      4       3.0280      2.00000
      5       3.4618      2.00000
      6       3.4914      2.00000
      7       3.5199      2.00000
      8       4.4849      2.00000
      9       4.9595      2.00000
     10       5.1415      2.00000
[...]
     40      36.1746      0.00000

 k-point    30 :       0.4444    0.3333    0.2222
  band No.  band energies     occupation 
      1       1.6830      2.00000
      2       2.2602      2.00000
      3       2.8321      2.00000
      4       2.9143      2.00000
      5       4.1098      2.00000
      6       4.1769      2.00000
      7       4.4310      2.00000
      8       4.6766      2.00000
      9       4.9797      2.00000
     10       4.9967      2.00000
     11       5.0931      2.00000
     12       5.1529      2.00000
     13       5.4994      2.00000
     14       5.6953      2.00000
     15       5.8407      2.00000
     16       5.8482      2.00000
     17       7.1393     -0.03848
     18       7.5459     -0.00000
     19       7.6372     -0.00000
     20       7.6386     -0.00000
     21       7.8520     -0.00000
     22       8.6100     -0.00000
     23      10.6211     -0.00000
     24      11.3073     -0.00000
     25      15.4088      0.00000
     26      16.1528      0.00000
     27      18.4503      0.00000
     28      19.7323      0.00000
     29      24.1686      0.00000
     30      24.9717      0.00000
     31      26.9991      0.00000
     32      27.2756      0.00000
     33      28.0467      0.00000
     34      28.2125      0.00000
     35      29.3947      0.00000
     36      31.6289      0.00000
     37      32.3083      0.00000
     38      32.9069      0.00000
     39      33.6456      0.00000
     40      34.6863      0.00000

 k-point    31 :       0.4444    0.4444    0.2222
  band No.  band energies     occupation 
      1       2.0632      2.00000
      2       2.4470      2.00000
      3       2.4470      2.00000
      4       2.6579      2.00000
      5       4.4541      2.00000
      6       4.6259      2.00000
      7       4.6259      2.00000
      8       4.9225      2.00000
      9       5.0499      2.00000
     10       5.0811      2.00000
     11       5.0811      2.00000
     12       5.2072      2.00000
     13       5.4430      2.00000
     14       5.5846      2.00000
     15       5.5846      2.00000
     16       5.6201      2.00000
     17       7.1554     -0.03163
     18       7.4077     -0.00016
     19       7.4077     -0.00016
     20       7.4745     -0.00002
     21       8.4716     -0.00000
     22       9.3382     -0.00000
     23       9.3382     -0.00000
     24      10.2311     -0.00000
     25      16.0665      0.00000
     26      17.1123      0.00000
     27      17.1123      0.00000
     28      18.3095      0.00000
     29      24.9964      0.00000
     30      25.9882      0.00000
     31      25.9882      0.00000
     32      27.0567      0.00000
     33      30.0454      0.00000
     34      30.0454      0.00000
     35      31.0075      0.00000
     36      31.0157      0.00000
     37      31.9251      0.00000
     38      33.4128      0.00000
     39      33.4128      0.00000
     40      33.9896      0.00000

 k-point    32 :       0.3333    0.3333    0.3333
  band No.  band energies     occupation 
      1       1.4070      2.00000
      2       2.5907      2.00000
      3       2.5907      2.00000
      4       2.5907      2.00000
      5       4.3027      2.00000
      6       4.3027      2.00000
      7       4.3027      2.00000
      8       5.0359      2.00000
      9       5.2310      2.00000
     10       5.2310      2.00000
     11       5.2310      2.00000
     12       5.3082      2.00000
     13       5.3082      2.00000
     14       5.6864      2.00000
     15       5.6864      2.00000
     16       5.6864      2.00000
     17       7.2819     -0.00362
     18       7.2819     -0.00362
     19       7.8471     -0.00000
     20       7.8471     -0.00000
     21       7.8471     -0.00000
     22      10.0312     -0.00000
     23      10.0312     -0.00000
     24      10.0312     -0.00000
     25      16.0171      0.00000
     26      16.0171      0.00000
     27      16.0171      0.00000
     28      19.5463      0.00000
     29      25.9775      0.00000
     30      25.9775      0.00000
     31      25.9775      0.00000
     32      29.2837      0.00000
     33      29.2837      0.00000
     34      29.2837      0.00000
     35      29.6738      0.00000
     36      30.9422      0.00000
     37      30.9422      0.00000
     38      30.9422      0.00000
     39      34.1080      0.00000
     40      34.1080      0.00000

 k-point    33 :       0.4444    0.3333    0.3333
  band No.  band energies     occupation 
      1       1.7867      2.00000
      2       2.1869      2.00000
      3       2.5164      2.00000
      4       2.5164      2.00000
      5       4.4892      2.00000
      6       4.4892      2.00000
      7       4.7605      2.00000
      8       5.1219      2.00000
      9       5.3081      2.00000
     10       5.3187      2.00000
     11       5.3387      2.00000
     12       5.4391      2.00000
     13       5.4656      2.00000
     14       5.4656      2.00000
     15       5.5382      2.00000
     16       5.5382      2.00000
     17       7.5846     -0.00000
     18       7.6006     -0.00000
     19       7.7649     -0.00000
     20       7.7649     -0.00000
     21       7.7985     -0.00000
     22       8.5631     -0.00000
     23      10.1455     -0.00000
     24      10.1455     -0.00000
     25      15.3046      0.00000
     26      15.3046      0.00000
     27      16.9504      0.00000
     28      18.1306      0.00000
     29      26.4395      0.00000
     30      26.4395      0.00000
     31      27.9447      0.00000
     32      29.0388      0.00000
     33      29.0794      0.00000
     34      29.0794      0.00000
     35      30.5801      0.00000
     36      32.2029      0.00000
     37      32.2202      0.00000
     38      32.4527      0.00000
     39      32.4527      0.00000
     40      34.4943      0.00000

 k-point    34 :       0.4444    0.4444    0.3333
  band No.  band energies     occupation 
      1       1.9484      2.00000
      2       2.1893      2.00000
      3       2.1893      2.00000
      4       2.2967      2.00000
      5       4.7563      2.00000
      6       4.8586      2.00000
      7       4.8586      2.00000
      8       5.0990      2.00000
      9       5.2169      2.00000
     10       5.3068      2.00000
     11       5.3068      2.00000
     12       5.3358      2.00000
     13       5.7864      2.00000
     14       5.7864      2.00000
     15       5.8017      2.00000
     16       5.8285      2.00000
     17       7.5092     -0.00001
     18       7.7063     -0.00000
     19       7.7063     -0.00000
     20       7.7173     -0.00000
     21       8.0723     -0.00000
     22       8.8955     -0.00000
     23       8.8955     -0.00000
     24       9.4699     -0.00000
     25      15.2764      0.00000
     26      15.8723      0.00000
     27      15.8723      0.00000
     28      16.8393      0.00000
     29      27.2203      0.00000
     30      27.8056      0.00000
     31      27.8056      0.00000
     32      28.6029      0.00000
     33      30.9857      0.00000
     34      30.9857      0.00000
     35      31.3893      0.00000
     36      31.7369      0.00000
     37      32.3831      0.00000
     38      33.0195      0.00000
     39      33.0195      0.00000
     40      34.3791      0.00000

 k-point    35 :       0.4444    0.4444    0.4444
  band No.  band energies     occupation 
      1       1.9344      2.00000
      2       2.0493      2.00000
      3       2.0493      2.00000
      4       2.0493      2.00000
      5       5.0030      2.00000
      6       5.0030      2.00000
      7       5.0030      2.00000
      8       5.1193      2.00000
      9       5.1193      2.00000
     10       5.1608      2.00000
     11       5.1608      2.00000
     12       5.1608      2.00000
     13       6.4471      2.03068
     14       6.4471      2.03068
     15       6.4471      2.03068
     16       6.6122      2.03853
     17       7.7412     -0.00000
     18       7.7412     -0.00000
     19       7.8136     -0.00000
     20       7.8136     -0.00000
     21       7.8136     -0.00000
     22       8.4179     -0.00000
     23       8.4179     -0.00000
     24       8.4179     -0.00000
     25      15.2461      0.00000
     26      15.2461      0.00000
     27      15.2461      0.00000
     28      15.8034      0.00000
     29      28.4450      0.00000
     30      28.4450      0.00000
     31      28.4450      0.00000
     32      28.8365      0.00000
     33      32.7369      0.00000
     34      32.7369      0.00000
     35      32.7369      0.00000
     36      32.8666      0.00000
     37      32.8666      0.00000
     38      32.8666      0.00000
     39      33.8950      0.00000
     40      33.8950      0.00000


--------------------------------------------------------------------------------------------------------


 soft charge-density along one line, spin component           1
         0         1         2         3         4         5         6         7         8         9
x    15.5502    0.0000    0.0000    0.0000   -0.2584   -0.0000    0.0000   -0.0000   -0.1480    0.0000
x     0.0000   -0.0000    0.0344    0.0000   -0.0000    0.0000    0.0000    0.0000
y    15.5502    0.0000    0.0000    0.0000   -0.2584   -0.0000    0.0000   -0.0000   -0.1480    0.0000
y     0.0000   -0.0000    0.0344    0.0000   -0.0000    0.0000    0.0000    0.0000
z    15.5502    0.0000    0.0000    0.0000   -0.2584   -0.0000    0.0000   -0.0000   -0.1480    0.0000
z     0.0000   -0.0000    0.0344    0.0000   -0.0000    0.0000    0.0000    0.0000
 total charge-density along one line
x    32.0001    0.0000    0.0000   -0.0000    9.1042   -0.0000    0.0000    0.0000    1.0377    0.0000
x     0.0000   -0.0000   -0.0138    0.0000    0.0000    0.0000    0.0100    0.0000    0.0000    0.0000
x    -0.0014    0.0000    0.0000   -0.0000   -0.0003    0.0000    0.0000    0.0000    0.0006   -0.0000
x     0.0000   -0.0000   -0.0006    0.0000
y    32.0001    0.0000    0.0000    0.0000    9.1042    0.0000    0.0000    0.0000    1.0377   -0.0000
y     0.0000    0.0000   -0.0138   -0.0000   -0.0000    0.0000    0.0100    0.0000   -0.0000    0.0000
y    -0.0014    0.0000   -0.0000    0.0000   -0.0003    0.0000   -0.0000    0.0000    0.0006    0.0000
y    -0.0000   -0.0000   -0.0006    0.0000
z    32.0001    0.0000   -0.0000   -0.0000    9.1042    0.0000   -0.0000   -0.0000    1.0377    0.0000
z    -0.0000   -0.0000   -0.0138    0.0000   -0.0000   -0.0000    0.0100    0.0000   -0.0000   -0.0000
z    -0.0014   -0.0000   -0.0000   -0.0000   -0.0003    0.0000   -0.0000   -0.0000    0.0006   -0.0000
z    -0.0000    0.0000   -0.0006    0.0000
 
 pseudopotential strength for first ion, spin component:           1
 -4.465   0.000   0.000   0.000   0.000  -5.028   0.000   0.000
  0.000  -4.465   0.000  -0.000  -0.000   0.000  -5.028   0.000
  0.000   0.000  -4.449  -0.000   0.000   0.000   0.000  -5.013
  0.000  -0.000  -0.000  -4.465  -0.000   0.000  -0.000  -0.000
  0.000  -0.000   0.000  -0.000  -4.449   0.000  -0.000   0.000
 -5.028   0.000   0.000   0.000   0.000  -5.548   0.000   0.000
  0.000  -5.028   0.000  -0.000  -0.000   0.000  -5.548   0.000
  0.000   0.000  -5.013  -0.000   0.000   0.000   0.000  -5.533
  0.000  -0.000  -0.000  -5.028  -0.000   0.000  -0.000  -0.000
  0.000  -0.000   0.000  -0.000  -5.013   0.000  -0.000   0.000
  0.000  -0.000   0.000   0.000   0.000   0.000  -0.000   0.000
  0.000  -0.000   0.000   0.000   0.000   0.000  -0.000   0.000
  0.000  -0.000   0.000   0.000   0.000   0.000  -0.000   0.000
  0.000  -0.000  -0.000   0.000   0.000   0.000  -0.000  -0.000
 -0.000   0.000  -0.000  -0.000   0.000  -0.000   0.000  -0.000
  0.000  -0.000   0.000   0.000   0.000   0.000  -0.000   0.000
  0.000  -0.000  -0.000   0.000   0.000   0.000  -0.000  -0.000
 -0.000   0.000  -0.000  -0.000   0.000  -0.000   0.000  -0.000
 total augmentation occupancy for first ion, spin component:           1
  1.349   0.000  -0.000   0.000   0.000  -0.734  -0.000  -0.000  -0.000   0.000  -0.000  -0.000  -0.000  -0.000  -0.000   0.000
 -0.000   1.349   0.000   0.000  -0.000   0.000  -0.734  -0.000  -0.000  -0.000  -0.000   0.000  -0.000   0.000   0.000   0.000
 -0.000   0.000   2.355   0.000  -0.000   0.000   0.000  -1.325  -0.000  -0.000   0.000   0.000  -0.000  -0.000  -0.000  -0.000
 -0.000   0.000   0.000   1.349   0.000   0.000  -0.000  -0.000  -0.734   0.000  -0.000  -0.000   0.000   0.000   0.000  -0.000
  0.000  -0.000   0.000  -0.000   2.355  -0.000   0.000  -0.000  -0.000  -1.325   0.000   0.000  -0.000   0.000  -0.000  -0.000
 -0.734   0.000  -0.000   0.000  -0.000   1.455   0.000  -0.000  -0.000  -0.000  -0.000   0.000   0.000   0.000  -0.000   0.000
 -0.000  -0.734   0.000  -0.000   0.000   0.000   1.455   0.000  -0.000  -0.000  -0.000  -0.000   0.000   0.000  -0.000   0.000
  0.000  -0.000  -1.325  -0.000  -0.000  -0.000   0.000   1.667   0.000   0.000   0.000   0.000  -0.000  -0.000   0.000   0.000
 -0.000  -0.000   0.000  -0.734  -0.000  -0.000  -0.000   0.000   1.455   0.000   0.000  -0.000  -0.000  -0.000   0.000   0.000
 -0.000  -0.000   0.000   0.000  -1.325   0.000   0.000  -0.000   0.000   1.667  -0.000   0.000   0.000  -0.000   0.000   0.000
 -0.000  -0.000   0.000  -0.000   0.000   0.000  -0.000   0.000   0.000  -0.000   2.657  -0.304   0.000  -0.000  -0.000   0.000
 -0.000   0.000   0.000  -0.000   0.000   0.000  -0.000   0.000  -0.000  -0.000  -0.304   0.039   0.000  -0.000  -0.000   0.000
  0.000   0.000  -0.000   0.000  -0.000  -0.000   0.000  -0.000  -0.000   0.000  -0.000   0.000   0.342  -0.000  -0.000  -0.029
 -0.000   0.000   0.000  -0.000  -0.000   0.000  -0.000   0.000   0.000   0.000  -0.000  -0.000  -0.000   0.342   0.000   0.000
 -0.000  -0.000   0.000  -0.000  -0.000   0.000  -0.000  -0.000   0.000  -0.000   0.000   0.000  -0.000   0.000   0.342   0.000
 -0.000   0.000   0.000  -0.000   0.000   0.000   0.000   0.000   0.000  -0.000  -0.000   0.000  -0.029   0.000   0.000   0.003
  0.000  -0.000  -0.000   0.000   0.000   0.000  -0.000   0.000   0.000   0.000   0.000   0.000   0.000  -0.029  -0.000  -0.000
  0.000  -0.000   0.000   0.000   0.000   0.000  -0.000   0.000   0.000  -0.000   0.000  -0.000   0.000   0.000  -0.029   0.000


------------------------ aborting loop because EDIFF is reached ----------------------------------------


    CHARGE:  cpu time    0.0308: real time    0.0308
    FORLOC:  cpu time    0.0006: real time    0.0006
    FORNL :  cpu time    0.1485: real time    0.1485
    STRESS:  cpu time    0.1754: real time    0.1754
    FORCOR:  cpu time    0.0075: real time    0.0075
    FORHAR:  cpu time    0.0018: real time    0.0018
    MIXING:  cpu time    0.0004: real time    0.0004

  FORCE on cell =-STRESS in cart. coord.  units (eV):
  Direction    XX          YY          ZZ          XY          YZ          ZX
  --------------------------------------------------------------------------------------
  Alpha Z   270.44910   270.44910   270.44910
  Ewald    -817.65777  -817.65777  -817.65777    -0.00000    -0.00000    -0.00000
  Hartree   115.17102   115.17102   115.17102    -0.00000    -0.00000    -0.00000
  E(xc)    -156.86805  -156.86805  -156.86805    -0.00000    -0.00000    -0.00000
  Local     244.70781   244.70781   244.70781    -0.00000     0.00000     0.00000
  n-local  -107.79298  -106.88894  -101.62842     3.68384     0.73316     1.11906
  augment   151.84470   151.84470   151.84470     0.00000    -0.00000     0.00000
  Kinetic   313.28574   293.78852   286.14102     1.83432     6.50644     5.16972
  Fock        0.00000     0.00000     0.00000     0.00000     0.00000     0.00000
  -------------------------------------------------------------------------------------
  Total      -0.05155    -0.05155    -0.05155    -0.00000     0.00000    -0.00000
  in kB      -2.01991    -2.01991    -2.01991    -0.00000     0.00000    -0.00000
  external pressure =       -2.02 kB  Pullay stress =        0.00 kB


 VOLUME and BASIS-vectors are now :
 -----------------------------------------------------------------------------
  energy-cutoff  :      300.00
  volume of cell :       40.89
      direct lattice vectors                 reciprocal lattice vectors
     3.445083000  0.000000000  0.000000000     0.290268769  0.000000000  0.000000000
     0.000000000  3.445083000  0.000000000     0.000000000  0.290268769  0.000000000
     0.000000000  0.000000000  3.445083000     0.000000000  0.000000000  0.290268769

  length of vectors
     3.445083000  3.445083000  3.445083000     0.290268769  0.290268769  0.290268769


 FORCES acting on ions
    electron-ion (+dipol)            ewald-force                    non-local-force                 convergence-correction
 -----------------------------------------------------------------------------------------------
   -.207E-13 0.743E-14 0.255E-14   0.950E-15 -.636E-14 -.192E-14   -.560E-23 0.172E-23 0.117E-23   -.294E-13 0.215E-14 0.190E-13
   0.363E-13 0.771E-13 0.199E-14   -.151E-14 0.210E-14 -.192E-14   0.154E-23 0.531E-23 0.324E-23   -.221E-13 0.496E-14 0.153E-13
   0.418E-13 0.800E-14 0.744E-13   0.725E-14 -.267E-14 0.266E-14   0.255E-23 0.234E-23 -.843E-23   -.248E-13 0.451E-14 -.203E-14
   -.228E-13 0.779E-13 0.760E-13   -.832E-14 0.579E-14 0.266E-14   0.194E-23 -.548E-24 0.357E-23   -.284E-13 0.911E-14 -.588E-14
 -----------------------------------------------------------------------------------------------
   0.345E-13 0.170E-12 0.155E-12   -.163E-14 -.114E-14 0.147E-14   0.434E-24 0.883E-23 -.449E-24   -.105E-12 0.207E-13 0.264E-13
 
 
 POSITION                                       TOTAL-FORCE (eV/Angst)
 -----------------------------------------------------------------------------------
      0.00000      0.00000      0.00000        -0.000000      0.000000      0.000000
      1.72254      1.72254      0.00000         0.000000     -0.000000      0.000000
      1.72254      0.00000      1.72254         0.000000     -0.000000     -0.000000
      0.00000      1.72254      1.72254        -0.000000     -0.000000      0.000000
 -----------------------------------------------------------------------------------
    total drift:                               -0.000000      0.000000      0.000000


--------------------------------------------------------------------------------------------------------



  FREE ENERGIE OF THE ION-ELECTRON SYSTEM (eV)
  ---------------------------------------------------
  free  energy   TOTEN  =       -32.33861736 eV

  energy  without entropy=      -32.34006654  energy(sigma->0) =      -32.33910042
 


--------------------------------------------------------------------------------------------------------


    POTLOK:  cpu time    0.0112: real time    0.0112


--------------------------------------------------------------------------------------------------------


 writing wavefunctions
     LOOP+:  cpu time    7.5843: real time    7.6050
    4ORBIT:  cpu time    0.0000: real time    0.0000

 total amount of memory used by VASP MPI-rank0    47067. kBytes
=======================================================================

   base      :      30000. kBytes
   nonl-proj :       2521. kBytes
   grid      :       1806. kBytes
   one-center:         62. kBytes
   wavefun   :      12678. kBytes
 
  
  
 General timing and accounting informations for this job:
 ========================================================
  
                  Total CPU time used (sec):        7.778
                            User time (sec):        7.734
                          System time (sec):        0.044
                         Elapsed time (sec):        7.787
  
                   Maximum memory used (kb):       54944.
                   Average memory used (kb):          N/A
  
                          Minor page faults:         7415
                          Major page faults:            0
                 Voluntary context switches:           27
