unknown system                          
   1.00000000000000     
     2.330000    0.000000    0.000000
    -1.165000    2.017839    0.000000
     0.000000    0.000000    4.100000
   Fe
     2
Direct
  0.000000  0.000000  0.000000
  0.333333  0.666667  0.500000
 
   20   20   36
  161.78      153.30      130.49      99.843      68.656      42.472      24.148      13.942      9.9347      8.8432    
  8.5074      8.8434      9.9349      13.942      24.148      42.472      68.656      99.843      130.49      153.30    
  153.30      153.30      137.69      111.14      80.639      52.560      31.019      17.503      11.117      9.1403    
  8.5011      8.5007      9.1399      11.118      17.503      31.018      52.558      80.643      111.16      137.70    
  130.49      137.66      130.49      111.14      85.073      58.478      36.217      20.851      12.557      9.4585    
  8.5242      8.2088      8.5232      9.4583      12.558      20.850      36.213      58.475      85.076      111.15    
  99.839      111.08      111.08      99.843      80.639      58.478      38.153      22.880      13.757      9.8113    
  8.5637      8.0004      8.0000      8.5633      9.8120      13.759      22.880      38.150      58.472      80.633    
  68.644      80.539      84.940      80.549      68.656      52.560      36.217      22.880      14.225      10.057    
  8.6001      7.8783      7.6302      7.8784      8.6001      10.057      14.228      22.884      36.217      52.553    
  42.471      52.482      58.341      58.344      52.488      42.472      31.019      20.851      13.757      10.057    
  8.6148      7.8256      7.4214      7.4218      7.8256      8.6136      10.056      13.761      20.858      31.025    
  24.156      31.000      36.149      38.061      36.146      30.993      24.148      17.503      12.557      9.8112    
  8.6001      7.8256      7.3553      7.2031      7.3561      7.8247      8.5966      9.8078      12.558      17.509    
  13.941      17.527      20.870      22.883      22.879      20.862      17.521      13.942      11.117      9.4584    
  8.5637      7.8784      7.4213      7.2031      7.2038      7.4226      7.8780      8.5598      9.4516      11.112    
  9.9254      11.151      12.623      13.837      14.306      13.834      12.623      11.157      9.9348      9.1403    
  8.5241      8.0004      7.6302      7.4217      7.3562      7.4227      7.6330      8.0039      8.5240      9.1340    
  8.8430      9.1788      9.5365      9.9226      10.187      10.188      9.9268      9.5432      9.1846      8.8433    
  8.5010      8.2088      8.0000      7.8784      7.8257      7.8248      7.8779      8.0038      8.2164      8.5069    
  8.5161      8.5531      8.6146      8.6888      8.7522      8.7788      8.7557      8.6922      8.6139      8.5469    
  8.5074      8.5006      8.5233      8.5633      8.6001      8.6136      8.5965      8.5598      8.5242      8.5070    
  8.8429      8.5531      8.3091      8.1407      8.0502      8.0170      8.0178      8.0505      8.1368      8.3017    
  8.5473      8.8433      9.1399      9.4583      9.8119      10.057      10.056      9.8078      9.4517      9.1341    
  9.9253      9.1787      8.6148      8.1407      7.8115      7.6312      7.5758      7.6304      7.8088      8.1372    
  8.6147      9.1850      9.9349      11.118      12.558      13.758      14.228      13.761      12.558      11.112    
  13.941      11.151      9.5366      8.6888      8.0501      7.6312      7.4339      7.4332      7.6301      8.0505    
  8.6926      9.5432      11.157      13.942      17.503      20.850      22.880      22.884      20.858      17.509    
  24.156      17.527      12.623      9.9226      8.7521      8.0170      7.5759      7.4332      7.5750      8.0178    
  8.7557      9.9261      12.622      17.521      24.148      31.018      36.213      38.150      36.217      31.025    
  42.471      31.000      20.870      13.837      10.187      8.7788      8.0179      7.6304      7.6300      8.0178    
  8.7801      10.187      13.833      20.862      30.995      42.472      52.558      58.475      58.472      52.553    
  68.644      52.482      36.149      22.883      14.306      10.188      8.7556      8.0504      7.8088      8.0505    
  8.7557      10.187      14.303      22.879      36.149      52.489      68.656      80.643      85.076      80.633    
  99.839      80.539      58.341      38.061      22.879      13.834      9.9267      8.6922      8.1368      8.1372    
  8.6926      9.9260      13.833      22.879      38.065      58.346      80.545      99.843      111.16      111.15    
  130.49      111.08      84.940      58.344      36.146      20.861      12.623      9.5433      8.6140      8.3017    
  8.6146      9.5432      12.622      20.862      36.149      58.346      84.936      111.07      130.49      137.70    
  153.30      137.66      111.08      80.549      52.488      30.993      17.521      11.157      9.1846      8.5469    
  8.5473      9.1850      11.157      17.521      30.995      52.489      80.545      111.07      137.65      153.30    
  153.61      145.57      123.91      94.797      65.149      40.290      22.973      13.426      9.7386      8.7090    
  8.3811      8.7091      9.7388      13.426      22.973      40.290      65.149      94.797      123.91      145.57    
  145.57      145.57      130.75      105.53      76.531      49.847      29.439      16.729      10.808      8.9920    
  8.3681      8.3677      8.9916      10.809      16.729      29.438      49.846      76.535      105.54      130.76    
  123.92      130.73      123.91      105.53      80.743      55.460      34.343      19.852      12.121      9.2787    
  8.3858      8.0793      8.3849      9.2785      12.122      19.852      34.340      55.457      80.746      105.54    
  94.793      105.48      105.48      94.797      76.531      55.460      36.173      21.751      13.222      9.5908    
  8.4214      7.8747      7.8743      8.4210      9.5914      13.223      21.751      36.170      55.454      76.525    
  65.138      76.455      80.642      76.464      65.149      49.847      34.343      21.752      13.653      9.8087    
  8.4554      7.7553      7.5160      7.7555      8.4555      9.8094      13.655      21.755      34.343      49.840    
  40.289      49.796      55.366      55.370      49.802      40.290      29.439      19.853      13.222      9.8086    
  8.4693      7.7039      7.3146      7.3149      7.7040      8.4682      9.8083      13.226      19.860      29.445    
  22.981      29.446      34.322      36.135      34.319      29.439      22.973      16.729      12.121      9.5908    
  8.4554      7.7039      7.2509      7.1048      7.2517      7.7031      8.4522      9.5876      12.122      16.735    
  13.425      16.774      19.913      21.809      21.805      19.906      16.769      13.426      10.808      9.2786    
  8.4214      7.7554      7.3145      7.1048      7.1055      7.3157      7.7551      8.4178      9.2723      10.803    
  9.7299      10.860      12.222      13.351      13.788      13.349      12.222      10.866      9.7387      8.9920    
  8.3858      7.8748      7.5160      7.3149      7.2517      7.3157      7.5185      7.8779      8.3857      8.9861    
  8.7087      9.0464      9.3875      9.7447      9.9878      9.9890      9.7486      9.3938      9.0518      8.7090    
  8.3680      8.0794      7.8744      7.7554      7.7041      7.7032      7.7550      7.8779      8.0864      8.3735    
  8.3892      8.4340      8.5036      8.5844      8.6519      8.6798      8.6552      8.5875      8.5029      8.4283    
  8.3811      8.3676      8.3850      8.4210      8.4554      8.4682      8.4521      8.4178      8.3858      8.3735    
  8.7086      8.4340      8.2054      8.0497      7.9677      7.9385      7.9394      7.9680      8.0461      8.1985    
  8.4287      8.7091      8.9916      9.2785      9.5914      9.8094      9.8083      9.5876      9.2723      8.9862    
  9.7298      9.0464      8.5037      8.0497      7.7361      7.5651      7.5127      7.5644      7.7337      8.0464    
  8.5036      9.0522      9.7388      10.809      12.121      13.223      13.655      13.226      12.122      10.803    
  13.425      10.860      9.3876      8.5844      7.9676      7.5651      7.3760      7.3754      7.5640      7.9680    
  8.5879      9.3938      10.865      13.426      16.729      19.852      21.751      21.755      19.859      16.735    
  22.981      16.774      12.222      9.7447      8.6519      7.9385      7.5128      7.3753      7.5119      7.9393    
  8.6552      9.7479      12.221      16.768      22.973      29.438      34.340      36.170      34.343      29.445    
  40.289      29.446      19.913      13.351      9.9879      8.6799      7.9394      7.5644      7.5640      7.9393    
  8.6810      9.9883      13.347      19.906      29.440      40.290      49.846      55.457      55.454      49.840    
  65.138      49.796      34.322      21.809      13.788      9.9890      8.6551      7.9680      7.7336      7.9680    
  8.6552      9.9882      13.785      21.805      34.322      49.803      65.149      76.535      80.746      76.526    
  94.793      76.455      55.367      36.136      21.805      13.348      9.7485      8.5875      8.0461      8.0464    
  8.5879      9.7479      13.347      21.805      36.139      55.372      76.460      94.797      105.54      105.54    
  123.92      105.48      80.642      55.370      34.319      19.906      12.222      9.3938      8.5030      8.1984    
  8.5036      9.3937      12.221      19.906      34.322      55.372      80.639      105.47      123.91      130.76    
  145.57      130.73      105.48      76.464      49.802      29.439      16.769      10.866      9.0518      8.4282    
  8.4286      9.0522      10.865      16.768      29.440      49.803      76.460      105.47      130.72      145.57    
  131.57      124.68      106.13      81.125      55.658      34.420      19.860      12.090      9.2314      8.3417    
  8.0380      8.3418      9.2316      12.090      19.859      34.419      55.658      81.125      106.13      124.68    
  124.69      124.68      111.99      90.334      65.402      42.525      25.218      14.701      10.014      8.5847    
  8.0045      8.0042      8.5843      10.015      14.702      25.218      42.524      65.405      90.343      112.00    
  106.14      111.98      106.13      90.335      69.011      47.303      29.319      17.217      10.994      8.8035    
  8.0052      7.7248      8.0043      8.8033      10.995      17.216      29.317      47.300      69.014      90.342    
  81.123      90.321      90.322      81.126      65.402      47.302      30.855      18.761      11.833      9.0173    
  8.0275      7.5291      7.5288      8.0272      9.0177      11.834      18.761      30.853      47.298      65.398    
  55.649      65.391      68.998      65.398      55.658      42.525      29.320      18.761      12.165      9.1661    
  8.0530      7.4156      7.2010      7.4157      8.0530      9.1666      12.166      18.764      29.320      42.520    
  34.419      42.549      47.330      47.333      42.553      34.419      25.218      17.217      11.833      9.1661    
  8.0639      7.3666      7.0187      7.0191      7.3669      8.0630      9.1658      11.836      17.223      25.223    
  19.866      25.294      29.426      30.969      29.424      25.289      19.859      14.701      10.994      9.0172    
  8.0530      7.3666      6.9615      6.8320      6.9621      7.3661      8.0505      9.0147      10.995      14.706    
  12.089      14.806      17.394      18.970      18.967      17.388      14.802      12.090      10.014      8.8034    
  8.0276      7.4156      7.0187      6.8320      6.8325      7.0195      7.4153      8.0247      8.7984      10.010    
  9.2243      10.118      11.196      12.100      12.451      12.098      11.196      10.123      9.2315      8.5847    
  8.0051      7.5292      7.2010      7.0191      6.9622      7.0196      7.2028      7.5317      8.0051      8.5799    
  8.3415      8.6854      9.0018      9.2944      9.4874      9.4882      9.2974      9.0067      8.6898      8.3417    
  8.0045      7.7249      7.5288      7.4157      7.3669      7.3661      7.4152      7.5316      7.7306      8.0090    
  8.0445      8.1120      8.2041      8.3033      8.3825      8.4140      8.3850      8.3058      8.2034      8.1073    
  8.0379      8.0042      8.0044      8.0271      8.0530      8.0631      8.0504      8.0246      8.0052      8.0090    
  8.3414      8.1120      7.9281      7.8095      7.7525      7.7353      7.7360      7.7529      7.8066      7.9225    
  8.1077      8.3418      8.5844      8.8033      9.0176      9.1666      9.1658      9.0147      8.7985      8.5800    
  9.2242      8.6854      8.2042      7.8095      7.5419      7.3985      7.3551      7.3981      7.5401      7.8069    
  8.2041      8.6902      9.2315      10.015      10.995      11.834      12.166      11.836      10.995      10.010    
  12.090      10.118      9.0018      8.3033      7.7524      7.3985      7.2338      7.2333      7.3977      7.7528    
  8.3061      9.0068      10.123      12.090      14.702      17.216      18.761      18.764      17.222      14.706    
  19.866      14.806      11.196      9.2944      8.3824      7.7353      7.3551      7.2333      7.3544      7.7358    
  8.3850      9.2970      11.196      14.801      19.859      25.218      29.317      30.853      29.319      25.223    
  34.419      25.294      17.394      12.100      9.4874      8.4140      7.7361      7.3980      7.3976      7.7358    
  8.4148      9.4878      12.097      17.388      25.290      34.419      42.524      47.300      47.298      42.520    
  55.649      42.549      29.426      18.970      12.451      9.4883      8.3849      7.7528      7.5401      7.7529    
  8.3850      9.4878      12.450      18.968      29.426      42.554      55.658      65.405      69.014      65.398    
  81.123      65.391      47.330      30.969      18.967      12.098      9.2973      8.3058      7.8066      7.8069    
  8.3061      9.2969      12.097      18.968      30.972      47.335      65.395      81.126      90.343      90.342    
  106.14      90.321      68.998      47.333      29.424      17.388      11.196      9.0068      8.2035      7.9224    
  8.2041      9.0067      11.196      17.388      29.426      47.335      68.996      90.314      106.13      112.00    
  124.69      111.98      90.322      65.398      42.553      25.289      14.802      10.123      8.6898      8.1072    
  8.1076      8.6902      10.123      14.801      25.290      42.554      65.395      90.314      111.97      124.68    
  101.70      96.370      81.967      62.536      42.815      26.601      15.846      10.452      8.5858      7.8302    
  7.5660      7.8303      8.5859      10.452      15.846      26.601      42.815      62.536      81.967      96.370    
  96.373      96.370      86.505      69.665      50.299      32.691      19.685      12.153      9.0450      8.0079    
  7.5005      7.5002      8.0076      9.0454      12.154      19.684      32.690      50.301      69.670      86.512    
  81.971      86.524      81.967      69.665      53.078      36.308      22.675      13.851      9.6139      8.1656    
  7.4715      7.2320      7.4707      8.1654      9.6145      13.851      22.674      36.307      53.079      69.670    
  62.534      69.708      69.709      62.536      50.299      36.308      23.804      14.914      10.118      8.2839    
  7.4689      7.0448      7.0446      7.4685      8.2840      10.118      14.914      23.802      36.305      50.296    
  42.809      50.377      53.187      50.382      42.815      32.691      22.675      14.914      10.320      8.3576    
  7.4772      6.9352      6.7568      6.9354      7.4773      8.3578      10.321      14.915      22.675      32.687    
  26.601      32.817      36.503      36.505      32.820      26.601      19.685      13.851      10.118      8.3576    
  7.4820      6.8870      6.5984      6.5988      6.8874      7.4815      8.3574      10.120      13.855      19.688    
  15.851      19.856      22.958      24.125      22.956      19.853      15.846      12.153      9.6139      8.2838    
  7.4773      6.8871      6.5489      6.4423      6.5495      6.8868      7.4756      8.2822      9.6145      12.156    
  10.451      12.341      14.190      15.333      15.331      14.186      12.338      10.452      9.0450      8.1655    
  7.4689      6.9353      6.5984      6.4423      6.4426      6.5989      6.9350      7.4670      8.1621      9.0420    
  8.5807      9.2239      9.9603      10.580      10.822      10.578      9.9603      9.2273      8.5858      8.0079    
  7.4714      7.0449      6.7567      6.5988      6.5495      6.5989      6.7578      7.0465      7.4714      8.0046    
  7.8300      8.1773      8.4957      8.7425      8.8879      8.8884      8.7444      8.4990      8.1803      7.8302    
  7.5005      7.2320      7.0446      6.9354      6.8875      6.8869      6.9349      7.0465      7.2359      7.5036    
  7.5705      7.6706      7.7932      7.9163      8.0099      8.0458      8.0116      7.9178      7.7926      7.6674    
  7.5660      7.5002      7.4708      7.4685      7.4773      7.4815      7.4756      7.4670      7.4715      7.5036    
  7.8299      7.6706      7.5534      7.4890      7.4682      7.4682      7.4687      7.4685      7.4871      7.5496    
  7.6677      7.8302      8.0077      8.1654      8.2840      8.3578      8.3574      8.2822      8.1622      8.0046    
  8.5806      8.1772      7.7933      7.4890      7.2903      7.1877      7.1577      7.1877      7.2893      7.4873    
  7.7932      8.1806      8.5858      9.0454      9.6145      10.118      10.321      10.120      9.6145      9.0419    
  10.451      9.2239      8.4958      7.9163      7.4681      7.1877      7.0598      7.0596      7.1873      7.4684    
  7.9182      8.4991      9.2269      10.452      12.154      13.851      14.914      14.916      13.855      12.156    
  15.851      12.341      9.9603      8.7425      8.0099      7.4682      7.1578      7.0596      7.1571      7.4683    
  8.0116      8.7442      9.9596      12.338      15.846      19.684      22.674      23.802      22.675      19.688    
  26.601      19.856      14.190      10.579      8.8880      8.0458      7.4688      7.1877      7.1873      7.4684    
  8.0463      8.8883      10.578      14.186      19.853      26.601      32.690      36.307      36.305      32.687    
  42.809      32.817      22.958      15.333      10.822      8.8884      8.0115      7.4685      7.2892      7.4685    
  8.0116      8.8882      10.821      15.332      22.958      32.820      42.815      50.301      53.079      50.296    
  62.534      50.377      36.503      24.125      15.331      10.578      8.7443      7.9178      7.4871      7.4874    
  7.9182      8.7441      10.578      15.332      24.127      36.506      50.380      62.536      69.670      69.670    
  81.971      69.708      53.187      36.505      22.956      14.185      9.9603      8.4991      7.7926      7.5495    
  7.7932      8.4991      9.9597      14.186      22.958      36.506      53.185      69.703      81.967      86.512    
  96.373      86.524      69.709      50.382      32.820      19.853      12.338      9.2273      8.1803      7.6673    
  7.6676      8.1806      9.2269      12.338      19.853      32.820      50.380      69.703      86.517      96.370    
  70.880      67.129      57.009      43.410      29.786      18.920      12.128      9.0342      7.9104      7.2784    
  7.0649      7.2785      7.9105      9.0341      12.128      18.920      29.786      43.410      57.009      67.129    
  67.131      67.129      60.183      48.352      34.866      22.871      14.405      9.8860      8.1680      7.3742    
  6.9620      6.9617      7.3740      8.1684      9.8867      14.405      22.871      34.867      48.355      60.187    
  57.011      60.222      57.009      48.352      36.764      25.255      16.237      10.783      8.4083      7.4628    
  6.8939      6.7042      6.8933      7.4626      8.4088      10.783      16.236      25.254      36.765      48.355    
  43.409      48.453      48.453      43.410      34.866      25.255      16.938      11.364      8.6182      7.5267    
  6.8558      6.5209      6.5207      6.8554      7.5266      8.6183      11.363      16.937      25.253      34.865    
  29.783      35.033      36.996      35.036      29.786      22.871      16.237      11.364      8.7047      7.5589    
  6.8386      6.4093      6.2716      6.4095      6.8387      7.5588      8.7049      11.364      16.237      22.870    
  18.919      23.099      25.615      25.616      23.100      18.920      14.405      10.783      8.6182      7.5589    
  6.8341      6.3580      6.1344      6.1347      6.3585      6.8340      7.5587      8.6192      10.785      14.407    
  12.131      14.671      16.694      17.465      16.693      14.670      12.128      9.8861      8.4083      7.5266    
  6.8387      6.3581      6.0912      6.0083      6.0917      6.3581      6.8379      7.5259      8.4088      9.8881    
  9.0338      10.159      11.284      11.994      11.993      11.282      10.157      9.0342      8.1680      7.4627    
  6.8558      6.4094      6.1343      6.0083      6.0084      6.1345      6.4092      6.8548      7.4609      8.1663    
  7.9074      8.4255      8.9041      9.2819      9.4283      9.2810      8.9041      8.4275      7.9104      7.3742    
  6.8938      6.5210      6.2716      6.1347      6.0917      6.1345      6.2719      6.5218      6.8938      7.3723    
  7.2783      7.6177      7.9352      8.1804      8.3135      8.3136      8.1812      7.9368      7.6194      7.2785    
  6.9619      6.7042      6.5208      6.4095      6.3586      6.3581      6.4091      6.5217      6.7064      6.9637    
  7.0675      7.2010      7.3507      7.4926      7.5962      7.6347      7.5969      7.4933      7.3503      7.1992    
  7.0649      6.9617      6.8933      6.8554      6.8387      6.8340      6.8379      6.8547      6.8939      6.9637    
  7.2782      7.2010      7.1570      7.1488      7.1638      7.1802      7.1806      7.1641      7.1478      7.1548    
  7.1994      7.2785      7.3740      7.4626      7.5265      7.5588      7.5587      7.5258      7.4610      7.3723    
  7.9074      7.6177      7.3508      7.1488      7.0246      6.9652      6.9490      6.9654      7.0243      7.1480    
  7.3508      7.6196      7.9104      8.1684      8.4087      8.6183      8.7050      8.6193      8.4088      8.1663    
  9.0338      8.4255      7.9352      7.4926      7.1637      6.9652      6.8771      6.8771      6.9651      7.1640    
  7.4936      7.9370      8.4271      9.0342      9.8867      10.783      11.364      11.364      10.785      9.8881    
  12.131      10.159      8.9040      8.1804      7.5961      7.1802      6.9491      6.8770      6.9485      7.1801    
  7.5969      8.1812      8.9035      10.157      12.128      14.405      16.236      16.937      16.237      14.407    
  18.919      14.671      11.284      9.2819      8.3135      7.6347      7.1806      6.9654      6.9650      7.1802    
  7.6348      8.3137      9.2809      11.282      14.669      18.920      22.871      25.254      25.253      22.870    
  29.783      23.099      16.694      11.994      9.4284      8.3136      7.5969      7.1641      7.0243      7.1640    
  7.5970      8.3137      9.4280      11.993      16.694      23.101      29.786      34.867      36.765      34.865    
  43.409      35.033      25.615      17.465      11.993      9.2810      8.1811      7.4933      7.1478      7.1480    
  7.4936      8.1812      9.2809      11.993      17.466      25.617      35.035      43.410      48.356      48.355    
  57.011      48.453      36.996      25.616      16.693      11.282      8.9040      7.9369      7.3503      7.1548    
  7.3507      7.9369      8.9036      11.282      16.694      25.617      36.995      48.450      57.009      60.187    
  67.131      60.222      48.453      35.036      23.100      14.670      10.157      8.4275      7.6194      7.1991    
  7.1994      7.6196      8.4272      10.157      14.669      23.101      35.035      48.450      60.219      67.129    
  44.432      42.071      35.733      27.337      19.173      13.020      9.5264      8.0554      7.2622      6.7738    
  6.6144      6.7739      7.2622      8.0554      9.5264      13.020      19.173      27.337      35.733      42.071    
  42.071      42.071      37.700      30.328      22.111      15.115      10.546      8.3626      7.4118      6.7845    
  6.4751      6.4749      6.7843      7.4121      8.3632      10.547      15.115      22.111      30.329      37.701    
  35.734      37.754      35.733      30.328      23.222      16.413      11.412      8.6805      7.5164      6.7967    
  6.3654      6.2262      6.3650      6.7965      7.5167      8.6809      11.412      16.412      23.222      30.329    
  27.337      30.470      30.470      27.337      22.111      16.413      11.752      8.8956      7.5728      6.8038    
  6.2874      6.0413      6.0412      6.2871      6.8036      7.5727      8.8953      11.751      16.412      22.110    
  19.172      22.342      23.542      22.343      19.173      15.114      11.412      8.8956      7.5919      6.8060    
  6.2409      5.9218      5.8219      5.9220      6.2409      6.8057      7.5916      8.8957      11.412      15.114    
  13.021      15.416      16.893      16.893      15.416      13.020      10.546      8.6806      7.5728      6.8059    
  6.2255      5.8638      5.6986      5.6988      5.8643      6.2256      6.8058      7.5732      8.6816      10.547    
  9.5274      10.883      11.998      12.430      11.998      10.882      9.5264      8.3626      7.5163      6.8037    
  6.2409      5.8638      5.6591      5.5960      5.6594      5.8640      6.2408      6.8036      7.5167      8.3635    
  8.0551      8.7015      9.3067      9.6870      9.6867      9.3060      8.7011      8.0554      7.4119      6.7966    
  6.2874      5.9218      5.6985      5.5960      5.5960      5.6985      5.9217      6.2870      6.7960      7.4112    
  7.2608      7.7356      8.1357      8.4012      8.4957      8.4008      8.1357      7.7365      7.2622      6.7845    
  6.3654      6.0413      5.8219      5.6988      5.6595      5.6985      5.8218      6.0415      6.3653      6.7836    
  6.7738      7.0934      7.3935      7.6274      7.7553      7.7552      7.6274      7.3940      7.0941      6.7739    
  6.4751      6.2262      6.0412      5.9220      5.8643      5.8640      5.9217      6.0415      6.2271      6.4758    
  6.6155      6.7768      6.9446      7.0954      7.2017      7.2402      7.2019      7.0955      6.9443      6.7760    
  6.6144      6.4749      6.3650      6.2871      6.2409      6.2256      6.2407      6.2870      6.3654      6.4758    
  6.7737      6.7768      6.7996      6.8393      6.8825      6.9111      6.9113      6.8828      6.8389      6.7987    
  6.7762      6.7739      6.7843      6.7965      6.8036      6.8057      6.8058      6.8036      6.7961      6.7837    
  7.2608      7.0934      6.9446      6.8393      6.7816      6.7590      6.7543      6.7594      6.7818      6.8390    
  6.9446      7.0942      7.2622      7.4121      7.5167      7.5727      7.5917      7.5732      7.5167      7.4112    
  8.0552      7.7356      7.3936      7.0955      6.8825      6.7590      6.7063      6.7064      6.7591      6.8826    
  7.0958      7.3941      7.7362      8.0554      8.3632      8.6809      8.8953      8.8957      8.6816      8.3635    
  9.5275      8.7015      8.1357      7.6273      7.2017      6.9111      6.7543      6.7064      6.7540      6.9108    
  7.2019      7.6276      8.1353      8.7005      9.5264      10.547      11.412      11.751      11.412      10.547    
  13.021      10.883      9.3066      8.4012      7.7553      7.2403      6.9113      6.7594      6.7591      6.9109    
  7.2402      7.7554      8.4009      9.3056      10.882      13.020      15.115      16.412      16.412      15.114    
  19.172      15.415      11.998      9.6870      8.4958      7.7552      7.2018      6.8827      6.7818      6.8827    
  7.2019      7.7554      8.4959      9.6870      11.998      15.416      19.173      22.111      23.222      22.110    
  27.337      22.342      16.893      12.430      9.6867      8.4008      7.6274      7.0955      6.8389      6.8391    
  7.0958      7.6275      8.4009      9.6870      12.431      16.894      22.343      27.337      30.329      30.329    
  35.734      30.470      23.542      16.894      11.998      9.3059      8.1357      7.3941      6.9443      6.7987    
  6.9446      7.3941      8.1353      9.3056      11.998      16.894      23.542      30.469      35.733      37.701    
  42.071      37.754      30.470      22.343      15.416      10.882      8.7011      7.7365      7.0941      6.7760    
  6.7761      7.0942      7.7363      8.7005      10.882      15.416      22.343      30.469      37.753      42.070    
  25.304      24.028      20.648      16.302      12.308      9.5609      8.1360      7.3220      6.7219      6.3746    
  6.2644      6.3747      6.7219      7.3219      8.1359      9.5609      12.308      16.303      20.648      24.028    
  24.028      24.028      21.673      17.786      13.637      10.358      8.4289      7.4590      6.7640      6.3068    
  6.0910      6.0909      6.3067      6.7641      7.4594      8.4293      10.358      13.637      17.786      21.673    
  20.648      21.734      20.648      17.786      14.152      10.877      8.6853      7.5388      6.7884      6.2481    