unknown system                          
   1.00000000000000     
     2.330000    0.000000    0.000000
    -1.165000    2.017839    0.000000
     0.000000    0.000000    4.100000
   Fe
     2
Direct
  0.000000  0.000000  0.000000
  0.333333  0.666667  0.500000
 
   20   20   36
 0.16177814952E+03 0.15329605187E+03 0.13048541212E+03 0.99842787580E+02 0.68656026196E+02
 0.42472399901E+02 0.24147647246E+02 0.13941666624E+02 0.99347404080E+01 0.88432090750E+01
 0.85074408343E+01 0.88433800191E+01 0.99348871454E+01 0.13941641244E+02 0.24147521277E+02
 0.42472354481E+02 0.68656120036E+02 0.99842906479E+02 0.13048544186E+03 0.15329601987E+03
 0.15330187332E+03 0.15329595745E+03 0.13768691995E+03 0.11114442643E+03 0.80639003077E+02
 0.52559747428E+02 0.31019264981E+02 0.17502985300E+02 0.11117382444E+02 0.91402885066E+01
 0.85010777771E+01 0.85006734928E+01 0.91398782148E+01 0.11117785786E+02 0.17503097912E+02
 0.31017712403E+02 0.52558442583E+02 0.80642800473E+02 0.11115545685E+03 0.13770001985E+03
 0.13049411488E+03 0.13766445665E+03 0.13048543640E+03 0.11114451982E+03 0.85072968460E+02
 0.58477806277E+02 0.36216759320E+02 0.20850793642E+02 0.12556936384E+02 0.94584545892E+01
 0.85241657496E+01 0.82088172375E+01 0.85232287264E+01 0.94583247736E+01 0.12557741501E+02
 0.20850049153E+02 0.36213263630E+02 0.58475118897E+02 0.85076409111E+02 0.11115416902E+03
 0.99839037945E+02 0.11107629527E+03 0.11107760937E+03 0.99842966832E+02 0.80638969856E+02
 0.58477727048E+02 0.38153346254E+02 0.22880144358E+02 0.13757307612E+02 0.98112836317E+01
 0.85636556027E+01 0.80003860074E+01 0.80000127304E+01 0.85632810651E+01 0.98119681129E+01
 0.13758512321E+02 0.22879759856E+02 0.38149838479E+02 0.58471846148E+02 0.80633078482E+02
 0.68643880720E+02 0.80539486230E+02 0.84939985574E+02 0.80549153335E+02 0.68656033787E+02
 0.52559589712E+02 0.36216800643E+02 0.22880202650E+02 0.14224863106E+02 0.10056633679E+02
 0.86000503773E+01 0.78783349614E+01 0.76302419362E+01 0.78784273736E+01 0.86001381024E+01
 0.10057485311E+02 0.14227551032E+02 0.22883628390E+02 0.36216829923E+02 0.52552589126E+02
 0.42471114117E+02 0.52482069777E+02 0.58340586997E+02 0.58343833824E+02 0.52487869540E+02
 0.42472314513E+02 0.31019271593E+02 0.20850916902E+02 0.13757258263E+02 0.10056595714E+02
 0.86147989142E+01 0.78256100531E+01 0.74214159089E+01 0.74217822816E+01 0.78256473317E+01
 0.86135686341E+01 0.10056244947E+02 0.13761140491E+02 0.20858430799E+02 0.31024806224E+02
 0.24156194300E+02 0.31000408797E+02 0.36149284648E+02 0.38061210808E+02 0.36145767101E+02
 0.30993388840E+02 0.24147584165E+02 0.17503069098E+02 0.12556914837E+02 0.98111959598E+01
 0.86001096692E+01 0.78256344134E+01 0.73553394815E+01 0.72031342560E+01 0.73560675456E+01
 0.78247266392E+01 0.85965718100E+01 0.98077799078E+01 0.12557741501E+02 0.17509271041E+02
 0.13941250243E+02 0.17526780358E+02 0.20869849371E+02 0.22882623501E+02 0.22878781604E+02
 0.20861515679E+02 0.17520629864E+02 0.13941651425E+02 0.11117432495E+02 0.94583782502E+01
 0.85636930030E+01 0.78783958583E+01 0.74213430377E+01 0.72031138357E+01 0.72038449289E+01
 0.74226316438E+01 0.78780363720E+01 0.85598035328E+01 0.94515744925E+01 0.11111541327E+02
 0.99253964970E+01 0.11150779634E+02 0.12622631802E+02 0.13837070923E+02 0.14305917830E+02
 0.13834465312E+02 0.12622610864E+02 0.11156935886E+02 0.99348060484E+01 0.91402766723E+01
 0.85241269092E+01 0.80004490740E+01 0.76301872474E+01 0.74217340393E+01 0.73561571067E+01
 0.74226562727E+01 0.76329906034E+01 0.80038812642E+01 0.85240463516E+01 0.91340247573E+01
 0.88429750399E+01 0.91787753072E+01 0.95365002919E+01 0.99226067067E+01 0.10186740726E+02
 0.10187986663E+02 0.99268044248E+01 0.95432410812E+01 0.91845705242E+01 0.88432669449E+01
 0.85010067759E+01 0.82088403373E+01 0.80000440948E+01 0.78783818807E+01 0.78257197213E+01
 0.78247746685E+01 0.78779299822E+01 0.80038495620E+01 0.82163634994E+01 0.85069319295E+01
 0.85161138575E+01 0.85530832656E+01 0.86146471395E+01 0.86887734659E+01 0.87521867605E+01
 0.87788058591E+01 0.87556777523E+01 0.86922293358E+01 0.86139277912E+01 0.85469366605E+01
 0.85074214830E+01 0.85006377008E+01 0.85233092840E+01 0.85632660973E+01 0.86001096692E+01
 0.86135944545E+01 0.85964840848E+01 0.85597511648E+01 0.85241657496E+01 0.85069671387E+01
 0.88428502501E+01 0.85530527121E+01 0.83091480786E+01 0.81406576542E+01 0.80501721797E+01
 0.80169645724E+01 0.80178382992E+01 0.80504844797E+01 0.81367935890E+01 0.83017270841E+01
 0.85473313896E+01 0.88433130992E+01 0.91399178473E+01 0.94583460736E+01 0.98118744561E+01
 0.10057477253E+02 0.10056274854E+02 0.98077739228E+01 0.94516721315E+01 0.91340762241E+01
 0.99252968157E+01 0.91787367690E+01 0.86147669544E+01 0.81406744584E+01 0.78115440197E+01
 0.76312223098E+01 0.75757916139E+01 0.76304335699E+01 0.78088217556E+01 0.81371524139E+01
 0.86146983603E+01 0.91849755034E+01 0.99348531045E+01 0.11117823497E+02 0.12557685406E+02
 0.13758498627E+02 0.14227658829E+02 0.13761176145E+02 0.12557706953E+02 0.11111528987E+02
 0.13941290498E+02 0.11150807043E+02 0.95365926256E+01 0.86887860902E+01 0.80500681246E+01
 0.76312250654E+01 0.74338768207E+01 0.74332097383E+01 0.76300574437E+01 0.80504671785E+01
 0.86925695578E+01 0.95432122282E+01 0.11156559759E+02 0.13941666300E+02 0.17503125553E+02
 0.20850052664E+02 0.22879826524E+02 0.22883636766E+02 0.20858311050E+02 0.17509214884E+02
 0.24156320269E+02 0.17526841283E+02 0.12622586886E+02 0.99225690156E+01 0.87521110062E+01
 0.80169851877E+01 0.75758717847E+01 0.74331882917E+01 0.75750210448E+01 0.80177918771E+01
 0.87556777523E+01 0.99260870427E+01 0.12621793239E+02 0.17520551265E+02 0.24147584165E+02
 0.31017718827E+02 0.36213234350E+02 0.38149790123E+02 0.36216759320E+02 0.31024806036E+02
 0.42471182095E+02 0.31000394961E+02 0.20869726053E+02 0.13837023706E+02 0.10186788152E+02
 0.87788480142E+01 0.80178905908E+01 0.76303833856E+01 0.76300045038E+01 0.80178235534E+01
 0.87800595692E+01 0.10187173836E+02 0.13833247506E+02 0.20862342484E+02 0.30994926317E+02
 0.42472337071E+02 0.52558371906E+02 0.58475076320E+02 0.58471882801E+02 0.52552676165E+02
 0.68643834637E+02 0.52481958656E+02 0.36149225849E+02 0.22882657137E+02 0.14306028680E+02
 0.10188005958E+02 0.87556295427E+01 0.80504442508E+01 0.78087960523E+01 0.80505310047E+01
 0.87557052970E+01 0.10187145706E+02 0.14303216919E+02 0.22879172606E+02 0.36149285637E+02
 0.52489109904E+02 0.68656081543E+02 0.80642838389E+02 0.85076486996E+02 0.80633149619E+02
 0.99838955592E+02 0.80539403586E+02 0.58340641325E+02 0.38061327508E+02 0.22878825148E+02
 0.13834409524E+02 0.99267134068E+01 0.86922419524E+01 0.81368424701E+01 0.81371844908E+01
 0.86925695501E+01 0.99260337158E+01 0.13833238934E+02 0.22879182514E+02 0.38064723125E+02
 0.58346425449E+02 0.80545321347E+02 0.99843003378E+02 0.11115549309E+03 0.11115411187E+03
 0.13049408515E+03 0.11107636748E+03 0.84940067227E+02 0.58343907447E+02 0.36145707313E+02
 0.20861410137E+02 0.12622586886E+02 0.95433146097E+01 0.86139963853E+01 0.83016911434E+01
 0.86146471395E+01 0.95431934229E+01 0.12621814177E+02 0.20862360260E+02 0.36149284648E+02
 0.58346444744E+02 0.84936419282E+02 0.11106664273E+03 0.13048543640E+03 0.13769987152E+03
 0.15330188804E+03 0.13766463418E+03 0.11107762942E+03 0.80549071740E+02 0.52487794823E+02
 0.30993340989E+02 0.17520692714E+02 0.11157019336E+02 0.91845729353E+01 0.85468577208E+01
 0.85472830034E+01 0.91850164527E+01 0.11156615801E+02 0.17520553190E+02 0.30994892302E+02
 0.52489146307E+02 0.80545322397E+02 0.11106659057E+03 0.13765147920E+03 0.15329594016E+03
 0.15361289685E+03 0.14556661362E+03 0.12391334407E+03 0.94796863438E+02 0.65149156592E+02
 0.40289796411E+02 0.22973097276E+02 0.13425531654E+02 0.97386424873E+01 0.87089659295E+01
 0.83811440853E+01 0.87091305283E+01 0.97387835530E+01 0.13425506406E+02 0.22972974386E+02
 0.40289750606E+02 0.65149245216E+02 0.94796977261E+02 0.12391337308E+03 0.14556658340E+03
 0.14557204755E+03 0.14556652133E+03 0.13074962682E+03 0.10553323509E+03 0.76530997810E+02
 0.49847057096E+02 0.29439280494E+02 0.16729048661E+02 0.10808254987E+02 0.89919982775E+01
 0.83680520663E+01 0.83676594175E+01 0.89915992248E+01 0.10808663899E+02 0.16729236057E+02
 0.29437909682E+02 0.49845865722E+02 0.76534524694E+02 0.10554351127E+03 0.13076185387E+03
 0.12392147267E+03 0.13073238596E+03 0.12391336761E+03 0.10553332631E+03 0.80743054097E+02
 0.55459781156E+02 0.34343428518E+02 0.19852410741E+02 0.12120755613E+02 0.92786553977E+01
 0.83857913427E+01 0.80793372942E+01 0.83848765697E+01 0.92785119305E+01 0.12121543930E+02
 0.19851783615E+02 0.34340202107E+02 0.55457255452E+02 0.80746229656E+02 0.10554231803E+03
 0.94793381053E+02 0.10547962879E+03 0.10548084928E+03 0.94797038528E+02 0.76530965680E+02
 0.55459703845E+02 0.36172858562E+02 0.21751456839E+02 0.13222362705E+02 0.95908402621E+01
 0.84213951947E+01 0.78747006094E+01 0.78743399530E+01 0.84210158909E+01 0.95914450930E+01
 0.13223454960E+02 0.21751065876E+02 0.36169553613E+02 0.55454194263E+02 0.76525464331E+02
 0.65137850508E+02 0.76454857969E+02 0.80641907358E+02 0.76463868207E+02 0.65149164255E+02
 0.49846903183E+02 0.34343468468E+02 0.21751513636E+02 0.13652805540E+02 0.98086713462E+01
 0.84553864842E+01 0.77553495382E+01 0.75160232727E+01 0.77554585946E+01 0.84554717985E+01
 0.98094202254E+01 0.13655241064E+02 0.21754662084E+02 0.34343497230E+02 0.49840401567E+02
 0.40288623750E+02 0.49796396203E+02 0.55366492195E+02 0.55369528496E+02 0.49801809016E+02
 0.40289713025E+02 0.29439286639E+02 0.19852530906E+02 0.13222314989E+02 0.98086344629E+01
 0.84693105938E+01 0.77038971721E+01 0.73145554887E+01 0.73149286070E+01 0.77039918021E+01
 0.84681918345E+01 0.98082933692E+01 0.13225924311E+02 0.19859567868E+02 0.29444500693E+02
 0.22981073971E+02 0.29445580616E+02 0.34322354102E+02 0.36135455230E+02 0.34319103421E+02
 0.29439058981E+02 0.22973035787E+02 0.16729130522E+02 0.12120734960E+02 0.95907549416E+01
 0.84554438851E+01 0.77039207287E+01 0.72509423443E+01 0.71048392992E+01 0.72516536710E+01
 0.77031151777E+01 0.84521766760E+01 0.95875986532E+01 0.12121543930E+02 0.16734950444E+02
 0.13425109352E+02 0.16774275417E+02 0.19913348437E+02 0.21808653488E+02 0.21805080927E+02
 0.19905606685E+02 0.16768581324E+02 0.13425517109E+02 0.10808303759E+02 0.92785807871E+01
 0.84214312611E+01 0.77554086467E+01 0.73144847619E+01 0.71048195669E+01 0.71054865852E+01
 0.73156584091E+01 0.77550615404E+01 0.84178167371E+01 0.92722515876E+01 0.10802802690E+02
 0.97298855157E+01 0.10860041734E+02 0.12222202095E+02 0.13350992675E+02 0.13787750144E+02
 0.13348544644E+02 0.12222181637E+02 0.10865818260E+02 0.97387062207E+01 0.89919862712E+01
 0.83857534366E+01 0.78747622668E+01 0.75159703089E+01 0.73148818160E+01 0.72517407965E+01
 0.73156823450E+01 0.75185199430E+01 0.78779361609E+01 0.83856750218E+01 0.89861350696E+01
 0.87087389163E+01 0.90464064688E+01 0.93875148711E+01 0.97447147238E+01 0.99878394647E+01
 0.99889734714E+01 0.97485737668E+01 0.93937679283E+01 0.90518143496E+01 0.87090220653E+01
 0.83679830906E+01 0.80793603880E+01 0.78743706548E+01 0.77554140889E+01 0.77040621089E+01
 0.77031619278E+01 0.77549579262E+01 0.78779052053E+01 0.80863863033E+01 0.83735151848E+01
 0.83892436704E+01 0.84340480007E+01 0.85035976655E+01 0.85843571667E+01 0.86519357310E+01
 0.86798391417E+01 0.86551606101E+01 0.85875371852E+01 0.85028931611E+01 0.84282982759E+01
 0.83811254245E+01 0.83676249134E+01 0.83849549844E+01 0.84210007721E+01 0.84554438851E+01
 0.84682171724E+01 0.84520913617E+01 0.84177655519E+01 0.83857913427E+01 0.83735496564E+01
 0.87086173398E+01 0.84340180129E+01 0.82054032591E+01 0.80496531956E+01 0.79677003745E+01
 0.79385277624E+01 0.79393591105E+01 0.79680209791E+01 0.80460593841E+01 0.81984722937E+01
 0.84286803004E+01 0.87090650876E+01 0.89916376815E+01 0.92785323225E+01 0.95913537631E+01
 0.98094127295E+01 0.98083227565E+01 0.95875926438E+01 0.92723465902E+01 0.89861855327E+01
 0.97297884947E+01 0.90463685162E+01 0.85037143539E+01 0.80496697778E+01 0.77361315159E+01
 0.75650950057E+01 0.75126868318E+01 0.75644228166E+01 0.77336592290E+01 0.80464079738E+01
 0.85036475685E+01 0.90522059616E+01 0.97387502654E+01 0.10808700813E+02 0.12121489367E+02
 0.13223441845E+02 0.13655346255E+02 0.13225958913E+02 0.12121510021E+02 0.10802790831E+02
 0.13425148773E+02 0.10860068269E+02 0.93876047378E+01 0.85843698658E+01 0.79675991266E+01
 0.75650975674E+01 0.73759765056E+01 0.73753703720E+01 0.75640399362E+01 0.79679866884E+01
 0.85878866307E+01 0.93937591966E+01 0.10865435380E+02 0.13425531283E+02 0.16729263171E+02
 0.19851786930E+02 0.21751130756E+02 0.21754670167E+02 0.19859451018E+02 0.16734895696E+02
 0.22981196861E+02 0.16774334888E+02 0.12222158214E+02 0.97446781996E+01 0.86518620566E+01
 0.79385475833E+01 0.75127647457E+01 0.73753494702E+01 0.75119324243E+01 0.79392546759E+01
 0.86551606101E+01 0.97479379998E+01 0.12221383184E+02 0.16768428425E+02 0.22973035787E+02
 0.29437915628E+02 0.34340173346E+02 0.36169506509E+02 0.34343428518E+02 0.29444500494E+02
 0.40288689943E+02 0.29445567203E+02 0.19913228192E+02 0.13350946600E+02 0.99878857118E+01
 0.86798799961E+01 0.79394098967E+01 0.75643739793E+01 0.75639885373E+01 0.79392856413E+01
 0.86809790450E+01 0.99882586149E+01 0.13347438176E+02 0.19906316099E+02 0.29440415681E+02
 0.40289733413E+02 0.49845796714E+02 0.55457214105E+02 0.55454230227E+02 0.49840486472E+02
 0.65137805404E+02 0.49796287786E+02 0.34322296801E+02 0.21808686192E+02 0.13787858141E+02
 0.99889921803E+01 0.86551136596E+01 0.79679820070E+01 0.77336343203E+01 0.79680489641E+01
 0.86551873340E+01 0.99882310767E+01 0.13785296993E+02 0.21805477981E+02 0.34322355024E+02
 0.49802935872E+02 0.65149207774E+02 0.76534561888E+02 0.80746305700E+02 0.76525533655E+02
 0.94793300631E+02 0.76454777351E+02 0.55366545224E+02 0.36135569038E+02 0.21805123386E+02
 0.13348490262E+02 0.97484851612E+01 0.85875497919E+01 0.80461069713E+01 0.80464389787E+01
 0.85878865383E+01 0.97478859183E+01 0.13347429868E+02 0.21805487735E+02 0.36138767805E+02
 0.55371964446E+02 0.76460305400E+02 0.94797071930E+02 0.10554354651E+03 0.10554226205E+03
 0.12392144366E+03 0.10547969944E+03 0.80641987091E+02 0.55369600302E+02 0.34319045198E+02
 0.19905503838E+02 0.12222158214E+02 0.93938397429E+01 0.85029599465E+01 0.81984367840E+01
 0.85035976655E+01 0.93937411445E+01 0.12221403643E+02 0.19906333498E+02 0.34322354102E+02
 0.55371983224E+02 0.80638612236E+02 0.10547063519E+03 0.12391336761E+03 0.13076170886E+03
 0.14557206194E+03 0.13073255949E+03 0.10548086901E+03 0.76463788478E+02 0.49801736107E+02
 0.29439012415E+02 0.16768642413E+02 0.10865899469E+02 0.90518168365E+01 0.84282211030E+01
 0.84286331153E+01 0.90522464011E+01 0.10865490054E+02 0.16768430043E+02 0.29440382528E+02
 0.49802971380E+02 0.76460306289E+02 0.10547058426E+03 0.13072028024E+03 0.14556650549E+03
 0.13156818744E+03 0.12468484633E+03 0.10613012122E+03 0.81125381741E+02 0.55657959270E+02
 0.34419536792E+02 0.19859510531E+02 0.12089905666E+02 0.92314387417E+01 0.83416809969E+01
 0.80379627467E+01 0.83418288223E+01 0.92315650885E+01 0.12089881434E+02 0.19859396529E+02
 0.34419490344E+02 0.55658033992E+02 0.81125481839E+02 0.10613014813E+03 0.12468482082E+03
 0.12468924220E+03 0.12468476023E+03 0.11198659033E+03 0.90334440397E+02 0.65402315472E+02
 0.42525183131E+02 0.25218436255E+02 0.14701294784E+02 0.10014260381E+02 0.85847040642E+01
 0.80045463929E+01 0.80041884683E+01 0.85843389597E+01 0.10014676947E+02 0.14701663564E+02
 0.25217533890E+02 0.42524289005E+02 0.65405121644E+02 0.90342701404E+02 0.11199648041E+03
 0.10613671087E+03 0.11198401330E+03 0.10613014265E+03 0.90334525352E+02 0.69011100138E+02
 0.47302508166E+02 0.29319494582E+02 0.17216642541E+02 0.10993957912E+02 0.88034982195E+01
 0.80051673288E+01 0.77248400973E+01 0.80043204670E+01 0.88033222959E+01 0.10994692374E+02
 0.17216314348E+02 0.29316981173E+02 0.47300419276E+02 0.69013573623E+02 0.90341759389E+02
 0.81122611545E+02 0.90321272132E+02 0.90322243550E+02 0.81125544809E+02 0.65402286446E+02
 0.47302436386E+02 0.30855343985E+02 0.18761223399E+02 0.11833256994E+02 0.90172580077E+01
 0.80275424822E+01 0.75291163490E+01 0.75287920630E+01 0.80271566753E+01 0.90176568388E+01
 0.11834055379E+02 0.18760822860E+02 0.30852589833E+02 0.47297926176E+02 0.65397829970E+02
 0.55648894574E+02 0.65390835120E+02 0.68998145129E+02 0.65398088987E+02 0.55657967097E+02
 0.42525040179E+02 0.29319530612E+02 0.18761275883E+02 0.12164579061E+02 0.91661009832E+01
 0.80529550448E+01 0.74155854336E+01 0.72010047032E+01 0.74157340268E+01 0.80530334140E+01
 0.91665855311E+01 0.12166355682E+02 0.18763693154E+02 0.29319557854E+02 0.42519867626E+02
 0.34418660378E+02 0.42548993599E+02 0.47330441267E+02 0.47332912255E+02 0.42553369947E+02
 0.34419459176E+02 0.25218441080E+02 0.17216753773E+02 0.11833213948E+02 0.91660672160E+01
 0.80638693490E+01 0.73666262570E+01 0.70187267949E+01 0.70191109282E+01 0.73668610622E+01
 0.80630429502E+01 0.91657555647E+01 0.11836095708E+02 0.17222507709E+02 0.25222785236E+02
 0.19865959266E+02 0.25294186531E+02 0.29426426608E+02 0.30968920664E+02 0.29423883132E+02
 0.25288992546E+02 0.19859453616E+02 0.14701371040E+02 0.10993939815E+02 0.90171794740E+01
 0.80530070362E+01 0.73666475105E+01 0.69614633832E+01 0.68320200784E+01 0.69621227000E+01
 0.73661063109E+01 0.80504567330E+01 0.90147113290E+01 0.10994692374E+02 0.14706160159E+02
 0.12089475362E+02 0.14806260217E+02 0.17393930081E+02 0.18970243863E+02 0.18967389533E+02
 0.17387765101E+02 0.14801777548E+02 0.12089892991E+02 0.10014305490E+02 0.88034286263E+01
 0.80275747432E+01 0.74156393980E+01 0.70186622287E+01 0.68320023134E+01 0.68325013661E+01
 0.70195348220E+01 0.74153279542E+01 0.80246924532E+01 0.87983649739E+01 0.10009849495E+02
 0.92242629385E+01 0.10118276012E+02 0.11196477463E+02 0.12099707692E+02 0.12451395713E+02
 0.12097685571E+02 0.11196458401E+02 0.10123027899E+02 0.92314970156E+01 0.85846916104E+01
 0.80051321176E+01 0.75291739098E+01 0.72009566827E+01 0.70190683012E+01 0.69622027963E+01
 0.70195567613E+01 0.72028419711E+01 0.75316623576E+01 0.80050598801E+01 0.85799175802E+01
 0.83414757445E+01 0.86854425856E+01 0.90017561523E+01 0.92944354944E+01 0.94873994545E+01
 0.94882406333E+01 0.92974016337E+01 0.90067120769E+01 0.86898129569E+01 0.83417321534E+01
 0.80044832223E+01 0.77248630987E+01 0.75288208321E+01 0.74156923928E+01 0.73669253731E+01
 0.73661493683E+01 0.74152323558E+01 0.75316335659E+01 0.77305565696E+01 0.80089629256E+01
 0.80445254837E+01 0.81119909706E+01 0.82040658896E+01 0.83033217993E+01 0.83824718549E+01
 0.84139558831E+01 0.83849916927E+01 0.83057738406E+01 0.82034095595E+01 0.81073078204E+01
 0.80379460403E+01 0.80041576266E+01 0.80043927045E+01 0.80271411887E+01 0.80530070362E+01
 0.80630668646E+01 0.80503783638E+01 0.80246447056E+01 0.80051673288E+01 0.80089952544E+01
 0.83413634284E+01 0.81119626344E+01 0.79280727653E+01 0.78094670365E+01 0.77525405100E+01
 0.77353260714E+01 0.77360398978E+01 0.77528760134E+01 0.78065940606E+01 0.79224560882E+01
 0.81076528710E+01 0.83417676626E+01 0.85843740419E+01 0.88033401223E+01 0.90175722577E+01
 0.91665796138E+01 0.91657834147E+01 0.90147052816E+01 0.87984523934E+01 0.85799651162E+01
 0.92241735741E+01 0.86854063598E+01 0.82041735761E+01 0.78094829506E+01 0.75419443450E+01
 0.73984557823E+01 0.73550621009E+01 0.73980807316E+01 0.75401252146E+01 0.78069116292E+01
 0.82041119902E+01 0.86901660347E+01 0.92315339980E+01 0.10014711563E+02 0.10994642245E+02
 0.11834043914E+02 0.12166453311E+02 0.11836127288E+02 0.10994660343E+02 0.10009839002E+02
 0.12089512358E+02 0.10118300049E+02 0.90018389180E+01 0.83033346583E+01 0.77524473227E+01
 0.73984578078E+01 0.72337678797E+01 0.72333212876E+01 0.73976874240E+01 0.77528002743E+01
 0.83061396662E+01 0.90067523068E+01 0.10122634591E+02 0.12089905756E+02 0.14701689132E+02
 0.17216317115E+02 0.18760882575E+02 0.18763700386E+02 0.17222399244E+02 0.14706109471E+02
 0.19866073268E+02 0.14806315497E+02 0.11196436563E+02 0.92944022986E+01 0.83824041500E+01
 0.77353436507E+01 0.73551335576E+01 0.72333019525E+01 0.73543596702E+01 0.77357949488E+01
 0.83849916927E+01 0.92969759364E+01 0.11195718987E+02 0.14801444095E+02 0.19859453616E+02
 0.25217538494E+02 0.29316953931E+02 0.30852546310E+02 0.29319494582E+02 0.25222785015E+02
 0.34418721438E+02 0.25294174326E+02 0.17393818692E+02 0.12099664910E+02 0.94874423106E+01
 0.84139930304E+01 0.77360863857E+01 0.73980357610E+01 0.73976404278E+01 0.77358238574E+01
 0.84147987196E+01 0.94877783565E+01 0.12096870216E+02 0.17388174383E+02 0.25289883116E+02
 0.34419473788E+02 0.42524224825E+02 0.47300381446E+02 0.47297960126E+02 0.42519946397E+02
 0.55648852321E+02 0.42548892973E+02 0.29426373622E+02 0.18970273898E+02 0.12451495510E+02
 0.94882576651E+01 0.83849483621E+01 0.77528406304E+01 0.75401025636E+01 0.77528580785E+01
 0.83850160670E+01 0.94877525322E+01 0.12449590914E+02 0.18967795605E+02 0.29426427344E+02
 0.42554199913E+02 0.55657999566E+02 0.65405156741E+02 0.69013644350E+02 0.65397894092E+02
 0.81122536713E+02 0.65390760331E+02 0.47330490541E+02 0.30969026140E+02 0.18967428870E+02
 0.12097635237E+02 0.92973199459E+01 0.83057863785E+01 0.78066379229E+01 0.78069395773E+01
 0.83061393451E+01 0.92969274444E+01 0.12096862664E+02 0.18967804907E+02 0.30971690476E+02
 0.47334927316E+02 0.65395243959E+02 0.81125570076E+02 0.90342733775E+02 0.90341706804E+02
 0.10613668395E+03 0.90321338260E+02 0.68998219300E+02 0.47332978830E+02 0.29423829410E+02
 0.17387670020E+02 0.11196436563E+02 0.90067789273E+01 0.82034711454E+01 0.79224218798E+01
 0.82040658896E+01 0.90067363915E+01 0.11195738050E+02 0.17388190692E+02 0.29426426608E+02
 0.47334944618E+02 0.68995568448E+02 0.90314039939E+02 0.10613014265E+03 0.11199634502E+03
 0.12468925562E+03 0.11198417525E+03 0.90322262287E+02 0.65398014649E+02 0.42553302263E+02
 0.25288949682E+02 0.14801833587E+02 0.10123102647E+02 0.86898156500E+01 0.81072357757E+01
 0.81076091625E+01 0.86902049535E+01 0.10122685302E+02 0.14801444855E+02 0.25289852456E+02
 0.42554232856E+02 0.65395244410E+02 0.90313992547E+02 0.11197424062E+03 0.12468474814E+03
 0.10170465074E+03 0.96369668917E+02 0.81966631312E+02 0.62536131916E+02 0.42815343056E+02
 0.26601130851E+02 0.15846402017E+02 0.10451601495E+02 0.85857648538E+01 0.78301578029E+01
 0.75659654679E+01 0.78302831763E+01 0.85858719440E+01 0.10451579859E+02 0.15846301715E+02
 0.26601085211E+02 0.42815400080E+02 0.62536213694E+02 0.81966654990E+02 0.96369649326E+02
 0.96372692805E+02 0.96369592398E+02 0.86505422536E+02 0.69664696801E+02 0.50299217468E+02
 0.32690769652E+02 0.19684781285E+02 0.12153017580E+02 0.90449879214E+01 0.80079313162E+01
 0.75005384518E+01 0.75002363010E+01 0.80076215771E+01 0.90453938039E+01 0.12153572608E+02
 0.19684446217E+02 0.32690249803E+02 0.50301082402E+02 0.69670309151E+02 0.86512227138E+02
 0.81971184509E+02 0.86523598371E+02 0.81966649616E+02 0.69664772082E+02 0.53077775877E+02
 0.36308193047E+02 0.22675263397E+02 0.13850903139E+02 0.96139052353E+01 0.81655955982E+01
 0.74714763820E+01 0.72319840074E+01 0.74707433262E+01 0.81653891942E+01 0.96145440725E+01
 0.13850926449E+02 0.22673668491E+02 0.36306691614E+02 0.53079343978E+02 0.69669693054E+02
 0.62534292551E+02 0.69708023691E+02 0.69708670490E+02 0.62536276427E+02 0.50299193069E+02
 0.36308129771E+02 0.23804111497E+02 0.14913966874E+02 0.10117623002E+02 0.82838954017E+01
 0.74688995527E+01 0.70448498033E+01 0.70445811515E+01 0.74685236093E+01 0.82840434912E+01
 0.10118054017E+02 0.14913575129E+02 0.23802105741E+02 0.36304953181E+02 0.50296117780E+02
 0.42809220709E+02 0.50377121413E+02 0.53187025995E+02 0.50382062895E+02 0.42815350996E+02
 0.32690643558E+02 0.22675293529E+02 0.14914012730E+02 0.10320343451E+02 0.83576473454E+01
 0.74772103683E+01 0.69352066895E+01 0.67567871653E+01 0.69353932458E+01 0.74772780879E+01
 0.83578131925E+01 0.10321297625E+02 0.14915496273E+02 0.22675318343E+02 0.32687206324E+02
 0.26600627192E+02 0.32816876967E+02 0.36502950768E+02 0.36504670820E+02 0.32819883732E+02
 0.26601062110E+02 0.19684784168E+02 0.13851000621E+02 0.10117587000E+02 0.83576183539E+01
 0.74819725365E+01 0.68870411913E+01 0.65984445430E+01 0.65988230636E+01 0.68874226315E+01
 0.74815138068E+01 0.83573551735E+01 0.10119517141E+02 0.13855044044E+02 0.19687947715E+02
 0.15850831234E+02 0.19856044202E+02 0.22958102465E+02 0.24125164848E+02 0.22956472325E+02
 0.19852584740E+02 0.15846352086E+02 0.12153085160E+02 0.96138909739E+01 0.82838273133E+01
 0.74772541829E+01 0.68870589530E+01 0.65488858178E+01 0.64423242884E+01 0.65494557905E+01
 0.68868398881E+01 0.74756282362E+01 0.82822470725E+01 0.96145440725E+01 0.12156491363E+02
 0.10451182458E+02 0.12341301852E+02 0.14189648534E+02 0.15333303009E+02 0.15331388894E+02
 0.14185542805E+02 0.12338389231E+02 0.10451591621E+02 0.90450274652E+01 0.81655338267E+01
 0.74689260937E+01 0.69352527949E+01 0.65983893718E+01 0.64423094963E+01 0.64425969655E+01
 0.65988836813E+01 0.69349958444E+01 0.74669998677E+01 0.81621270195E+01 0.90419529233E+01
 0.85807031770E+01 0.92238898460E+01 0.99603055341E+01 0.10579521396E+02 0.10822280011E+02
 0.10578072723E+02 0.99602886654E+01 0.92272669510E+01 0.85858148656E+01 0.80079183355E+01
 0.74714453151E+01 0.70449009633E+01 0.67567466431E+01 0.65987867732E+01 0.65495250659E+01
 0.65989025621E+01 0.67577977690E+01 0.70465022945E+01 0.74713825744E+01 0.80045780979E+01
 0.78299890917E+01 0.81772571891E+01 0.84957310340E+01 0.87425283011E+01 0.88879403442E+01
 0.88884139649E+01 0.87443540911E+01 0.84989986029E+01 0.81802565950E+01 0.78302013807E+01
 0.75004840972E+01 0.72320066331E+01 0.70446068787E+01 0.69353561117E+01 0.68874777620E+01
 0.68868772569E+01 0.69349126049E+01 0.70464768617E+01 0.72359376681E+01 0.75035738648E+01
 0.75704949867E+01 0.76706407420E+01 0.77931585408E+01 0.79163173694E+01 0.80099491267E+01
 0.80458126324E+01 0.80115589130E+01 0.79178376841E+01 0.77925889758E+01 0.76673764496E+01
 0.75659516661E+01 0.75002109297E+01 0.74708060670E+01 0.74685077751E+01 0.74772541829E+01
 0.74815354346E+01 0.74755605165E+01 0.74669574926E+01 0.74714763820E+01 0.75036028481E+01
 0.78298909881E+01 0.76706150141E+01 0.75534285744E+01 0.74889910568E+01 0.74681884960E+01
 0.74681892624E+01 0.74687367114E+01 0.74685233990E+01 0.74870621579E+01 0.75495531245E+01
 0.76676641815E+01 0.78302286505E+01 0.80076515207E+01 0.81654032400E+01 0.82839694037E+01
 0.83578095582E+01 0.83573805306E+01 0.82822410735E+01 0.81622028369E+01 0.80046210223E+01
 0.85806255264E+01 0.81772237597E+01 0.77932524414E+01 0.74890058564E+01 0.72902525593E+01
 0.71877427437E+01 0.71577397145E+01 0.71877184924E+01 0.72892510469E+01 0.74873289727E+01
 0.77931987843E+01 0.81805506796E+01 0.85858443052E+01 0.90454248666E+01 0.96145007824E+01
 0.10118045019E+02 0.10321383494E+02 0.10119544145E+02 0.96145150438E+01 0.90419444422E+01
 0.10451215656E+02 0.92239101323E+01 0.84958029357E+01 0.79163302929E+01 0.74681075767E+01
 0.71877440162E+01 0.70598269076E+01 0.70595807411E+01 0.71873326534E+01 0.74684043748E+01
 0.79182026060E+01 0.84990903573E+01 0.92268811119E+01 0.10451603183E+02 0.12153595723E+02
 0.13850928441E+02 0.14913626891E+02 0.14915502178E+02 0.13854948554E+02 0.12156446898E+02
 0.15850931536E+02 0.12341350682E+02 0.99602692330E+01 0.87425000991E+01 0.80098905003E+01
 0.74682035528E+01 0.71578014178E+01 0.70595637933E+01 0.71571299060E+01 0.74683471719E+01
 0.80115589130E+01 0.87441827312E+01 0.99596494173E+01 0.12337869105E+02 0.15846352086E+02
 0.19684448874E+02 0.22673643677E+02 0.23802067630E+02 0.22675263397E+02 0.19687947489E+02
 0.26600680398E+02 0.19856033820E+02 0.14189550743E+02 0.10579483678E+02 0.88879780130E+01
 0.80458442166E+01 0.74687767307E+01 0.71876794021E+01 0.71872922906E+01 0.74683729007E+01
 0.80462840027E+01 0.88882575964E+01 0.10577622270E+02 0.14185595856E+02 0.19852910469E+02
 0.26601069676E+02 0.32690193105E+02 0.36306659081E+02 0.36304983924E+02 0.32687275719E+02
 0.42809182927E+02 0.32816788294E+02 0.22958056100E+02 0.15333328996E+02 0.10822367293E+02
 0.88884284662E+01 0.80115211107E+01 0.74684934157E+01 0.72892317574E+01 0.74684553108E+01
 0.80115797372E+01 0.88882344289E+01 0.10821288649E+02 0.15331786296E+02 0.22958102935E+02
 0.32820341751E+02 0.42815370237E+02 0.50301114212E+02 0.53079406488E+02 0.50296173989E+02
 0.62534226380E+02 0.50377055539E+02 0.36502994242E+02 0.24125257550E+02 0.15331423460E+02
 0.10578028594E+02 0.87442829108E+01 0.79178499903E+01 0.74871003199E+01 0.74873523352E+01
 0.79182019887E+01 0.87441397529E+01 0.10577615860E+02 0.15331794874E+02 0.24127195109E+02
 0.36506118337E+02 0.50380157359E+02 0.62536292034E+02 0.69670337194E+02 0.69669645817E+02
 0.81971160831E+02 0.69708082732E+02 0.53187091534E+02 0.36504729365E+02 0.22956425490E+02
 0.14185459631E+02 0.99602692330E+01 0.84990577552E+01 0.77926426329E+01 0.75495211010E+01
 0.77931585408E+01 0.84990776080E+01 0.99596662860E+01 0.14185610474E+02 0.22958102465E+02
 0.36506133408E+02 0.53185376143E+02 0.69703108688E+02 0.81966649616E+02 0.86512106674E+02
 0.96372704729E+02 0.86523742355E+02 0.69708687578E+02 0.50381996888E+02 0.32819824106E+02
 0.19852547554E+02 0.12338437594E+02 0.92273317837E+01 0.81802595721E+01 0.76673123869E+01
 0.76676258467E+01 0.81805870861E+01 0.92269256584E+01 0.12337868638E+02 0.19852883665E+02
 0.32820370798E+02 0.50380157225E+02 0.69703066735E+02 0.86516902983E+02 0.96369584731E+02
 0.70879892289E+02 0.67129117505E+02 0.57008891663E+02 0.43410146193E+02 0.29785900715E+02
 0.18919608496E+02 0.12128439306E+02 0.90341586471E+01 0.79103814497E+01 0.72784232975E+01
 0.70649337872E+01 0.72785235988E+01 0.79104666945E+01 0.90341397873E+01 0.12128355993E+02
 0.18919567987E+02 0.29785942984E+02 0.43410210331E+02 0.57008911331E+02 0.67129102990E+02
 0.67130805636E+02 0.67129052963E+02 0.60182931651E+02 0.48352434003E+02 0.34866425245E+02
 0.22871396019E+02 0.14405365424E+02 0.98860407835E+01 0.81680076983E+01 0.73742332016E+01