   2   2   0   0
  0.9638209E+01  0.2330000E-09  0.2330000E-09  0.4100000E-09  0.5000000E-15
  1.000000000000000E-004
  CAR 
 unknown system                          
     74.57649644     -5.30554928  301      7.53902903      1.00000000
     -5.306  0.0000E+00  0.0000E+00
     -5.039  0.0000E+00  0.0000E+00
     -4.773  0.0000E+00  0.0000E+00
     -4.507  0.0000E+00  0.0000E+00
     -4.240  0.0000E+00  0.0000E+00
     -3.974  0.0000E+00  0.0000E+00
     -3.708  0.0000E+00  0.0000E+00
     -3.442 -0.1760E-35 -0.4686E-36
     -3.175 -0.4198E-26 -0.1118E-26
     -2.909 -0.2814E-18 -0.7492E-19
     -2.643 -0.5045E-12 -0.1343E-12
     -2.377 -0.2533E-07 -0.6744E-08
     -2.110 -0.3270E-04 -0.8714E-05
     -1.844 -0.4198E-03 -0.1205E-03
     -1.578  0.8572E-02  0.2162E-02
     -1.311  0.5065E-01  0.1565E-01
     -1.045  0.9792E-01  0.4172E-01
     -0.779  0.5652E-01  0.5677E-01
     -0.513  0.1444E+00  0.9521E-01
     -0.246  0.1698E+00  0.1404E+00
      0.020  0.1897E+00  0.1909E+00
      0.286  0.8265E-01  0.2129E+00
      0.552  0.2206E+00  0.2717E+00
      0.819  0.3058E+00  0.3531E+00
      1.085  0.2771E+00  0.4269E+00
      1.351  0.3171E+00  0.5113E+00
      1.618  0.2119E+00  0.5677E+00
      1.884  0.4232E+00  0.6804E+00
      2.150  0.8286E+00  0.9011E+00
      2.416  0.1324E+01  0.1254E+01
      2.683  0.1696E+01  0.1705E+01
      2.949  0.2429E+01  0.2352E+01
      3.215  0.2414E+01  0.2995E+01
      3.481  0.2762E+01  0.3730E+01
      3.748  0.2172E+01  0.4309E+01
      4.014  0.2617E+01  0.5006E+01
      4.280  0.3019E+01  0.5810E+01
      4.547  0.3059E+01  0.6624E+01
      4.813  0.2584E+01  0.7312E+01
      5.079  0.2102E+01  0.7872E+01
      5.345  0.2766E+01  0.8608E+01
      5.612  0.3879E+01  0.9641E+01
      5.878  0.3490E+01  0.1057E+02
      6.144  0.3743E+01  0.1157E+02
      6.410  0.3375E+01  0.1247E+02
      6.677  0.3606E+01  0.1343E+02
      6.943  0.2938E+01  0.1421E+02
      7.209  0.2999E+01  0.1501E+02
      7.476  0.3101E+01  0.1583E+02
      7.742  0.2399E+01  0.1647E+02
      8.008  0.3232E+01  0.1733E+02
      8.274  0.4601E+01  0.1856E+02
      8.541  0.4496E+01  0.1975E+02
      8.807  0.4166E+01  0.2086E+02
      9.073  0.1432E+01  0.2125E+02
      9.339  0.8980E-01  0.2127E+02
      9.606  0.5312E+00  0.2141E+02
      9.872  0.7998E+00  0.2162E+02
     10.138  0.7071E+00  0.2181E+02
     10.405  0.5688E+00  0.2196E+02
     10.671  0.5702E+00  0.2211E+02
     10.937  0.3584E+00  0.2221E+02
     11.203  0.3489E+00  0.2230E+02
     11.470  0.3716E+00  0.2240E+02
     11.736  0.6204E+00  0.2257E+02
     12.002  0.6118E+00  0.2273E+02
     12.269  0.3892E+00  0.2283E+02
     12.535  0.3367E+00  0.2292E+02
     12.801  0.4983E+00  0.2306E+02
     13.067  0.4549E+00  0.2318E+02
     13.334  0.2126E+00  0.2323E+02
     13.600  0.3101E+00  0.2332E+02
     13.866  0.3280E+00  0.2340E+02
     14.132  0.4352E+00  0.2352E+02
     14.399  0.2503E+00  0.2359E+02
     14.665  0.3039E+00  0.2367E+02
     14.931  0.5296E+00  0.2381E+02
     15.198  0.3066E+00  0.2389E+02
     15.464  0.1561E+00  0.2393E+02
     15.730  0.2367E+00  0.2399E+02
     15.996  0.2825E+00  0.2407E+02
     16.263  0.1459E+00  0.2411E+02
     16.529  0.1608E+00  0.2415E+02
     16.795  0.1641E+00  0.2420E+02
     17.061  0.2098E+00  0.2425E+02
     17.328  0.6238E+00  0.2442E+02
     17.594  0.3270E+00  0.2450E+02
     17.860  0.8002E+00  0.2472E+02
     18.127  0.9131E+00  0.2496E+02
     18.393  0.7253E+00  0.2515E+02
     18.659  0.5581E+00  0.2530E+02
     18.925  0.6131E+00  0.2547E+02
     19.192  0.5772E+00  0.2562E+02
     19.458  0.5743E+00  0.2577E+02
     19.724  0.9723E+00  0.2603E+02
     19.990  0.6133E+00  0.2619E+02
     20.257  0.6061E+00  0.2636E+02
     20.523  0.8431E+00  0.2658E+02
     20.789  0.5555E+00  0.2673E+02
     21.056  0.7174E+00  0.2692E+02
     21.322  0.5943E+00  0.2708E+02
     21.588  0.6347E+00  0.2725E+02
     21.854  0.7315E+00  0.2744E+02
     22.121  0.4160E+00  0.2755E+02
     22.387  0.6165E+00  0.2772E+02
     22.653  0.5505E+00  0.2786E+02
     22.919  0.5119E+00  0.2800E+02
     23.186  0.6946E+00  0.2818E+02
     23.452  0.6044E+00  0.2834E+02
     23.718  0.7087E+00  0.2853E+02
     23.985  0.5884E+00  0.2869E+02
     24.251  0.6236E+00  0.2886E+02
     24.517  0.6483E+00  0.2903E+02
     24.783  0.1268E+01  0.2937E+02
     25.050  0.8649E+00  0.2960E+02
     25.316  0.7302E+00  0.2979E+02
     25.582  0.1071E+01  0.3008E+02
     25.848  0.4258E+00  0.3019E+02
     26.115  0.9319E+00  0.3044E+02
     26.381  0.6976E+00  0.3062E+02
     26.647  0.9882E+00  0.3089E+02
     26.914  0.1137E+01  0.3119E+02
     27.180  0.1080E+01  0.3148E+02
     27.446  0.7026E+00  0.3166E+02
     27.712  0.8603E+00  0.3189E+02
     27.979  0.9945E+00  0.3216E+02
     28.245  0.9320E+00  0.3241E+02
     28.511  0.1070E+01  0.3269E+02
     28.777  0.6382E+00  0.3286E+02
     29.044  0.6236E+00  0.3303E+02
     29.310  0.1122E+01  0.3333E+02
     29.576  0.6876E+00  0.3351E+02
     29.843  0.7622E+00  0.3371E+02
     30.109  0.1394E+01  0.3408E+02
     30.375  0.5629E+00  0.3423E+02
     30.641  0.2993E+00  0.3431E+02
     30.908  0.7709E+00  0.3452E+02
     31.174  0.8502E+00  0.3474E+02
     31.440  0.6384E+00  0.3491E+02
     31.706  0.5564E+00  0.3506E+02
     31.973  0.8040E+00  0.3528E+02
     32.239  0.8241E+00  0.3550E+02
     32.505  0.7044E+00  0.3568E+02
     32.772  0.6246E+00  0.3585E+02
     33.038  0.7104E+00  0.3604E+02
     33.304  0.4652E+00  0.3616E+02
     33.570  0.9892E+00  0.3643E+02
     33.837  0.7571E+00  0.3663E+02
     34.103  0.7496E+00  0.3683E+02
     34.369  0.7840E+00  0.3704E+02
     34.635  0.7960E+00  0.3725E+02
     34.902  0.5917E+00  0.3741E+02
     35.168  0.7859E+00  0.3762E+02
     35.434  0.9881E+00  0.3788E+02
     35.701  0.1032E+01  0.3815E+02
     35.967  0.7174E+00  0.3834E+02
     36.233  0.8730E+00  0.3858E+02
     36.499  0.9599E+00  0.3883E+02
     36.766  0.1259E+01  0.3917E+02
     37.032  0.5171E+00  0.3931E+02
     37.298  0.8240E+00  0.3952E+02
     37.564  0.1479E+01  0.3992E+02
     37.831  0.1029E+01  0.4019E+02
     38.097  0.8893E+00  0.4043E+02
     38.363  0.8829E+00  0.4066E+02
     38.630  0.7943E+00  0.4088E+02
     38.896  0.7807E+00  0.4108E+02
     39.162  0.7561E+00  0.4129E+02
     39.428  0.5695E+00  0.4144E+02
     39.695  0.5599E+00  0.4159E+02
     39.961  0.9204E+00  0.4183E+02
     40.227  0.9007E+00  0.4207E+02
     40.493  0.5336E+00  0.4221E+02
     40.760  0.7653E+00  0.4242E+02
     41.026  0.9630E+00  0.4267E+02
     41.292  0.1374E+01  0.4304E+02
     41.559  0.6366E+00  0.4321E+02
     41.825  0.7970E+00  0.4342E+02
     42.091  0.9212E+00  0.4367E+02
     42.357  0.6476E+00  0.4384E+02
     42.624  0.5600E+00  0.4399E+02
     42.890  0.8026E+00  0.4420E+02
     43.156  0.8734E+00  0.4443E+02
     43.422  0.1159E+01  0.4474E+02
     43.689  0.1182E+01  0.4506E+02
     43.955  0.1066E+01  0.4534E+02
     44.221  0.9696E+00  0.4560E+02
     44.488  0.1030E+01  0.4587E+02
     44.754  0.7488E+00  0.4607E+02
     45.020  0.9044E+00  0.4631E+02
     45.286  0.1123E+01  0.4661E+02
     45.553  0.1262E+01  0.4695E+02
     45.819  0.1290E+01  0.4729E+02
     46.085  0.1066E+01  0.4758E+02
     46.352  0.9121E+00  0.4782E+02
     46.618  0.1127E+01  0.4812E+02
     46.884  0.1171E+01  0.4843E+02
     47.150  0.7682E+00  0.4864E+02
     47.417  0.8249E+00  0.4886E+02
     47.683  0.9375E+00  0.4911E+02
     47.949  0.8456E+00  0.4933E+02
     48.215  0.4769E+00  0.4946E+02
     48.482  0.6558E+00  0.4963E+02
     48.748  0.7808E+00  0.4984E+02
     49.014  0.1180E+01  0.5015E+02
     49.281  0.1110E+01  0.5045E+02
     49.547  0.8937E+00  0.5069E+02
     49.813  0.1211E+01  0.5101E+02
     50.079  0.8478E+00  0.5124E+02
     50.346  0.1021E+01  0.5151E+02
     50.612  0.7790E+00  0.5172E+02
     50.878  0.1501E+01  0.5212E+02
     51.144  0.1009E+01  0.5238E+02
     51.411  0.1006E+01  0.5265E+02
     51.677  0.4471E+00  0.5277E+02
     51.943  0.6071E+00  0.5293E+02
     52.210  0.1660E+01  0.5337E+02
     52.476  0.1603E+01  0.5380E+02
     52.742  0.1221E+01  0.5413E+02
     53.008  0.9834E+00  0.5439E+02
     53.275  0.1466E+01  0.5478E+02
     53.541  0.7854E+00  0.5499E+02
     53.807  0.7923E+00  0.5520E+02
     54.073  0.1242E+01  0.5553E+02
     54.340  0.1219E+01  0.5585E+02
     54.606  0.1012E+01  0.5612E+02
     54.872  0.7385E+00  0.5632E+02
     55.139  0.1088E+01  0.5661E+02
     55.405  0.1588E+01  0.5703E+02
     55.671  0.1236E+01  0.5736E+02
     55.937  0.1231E+01  0.5769E+02
     56.204  0.1051E+01  0.5797E+02
     56.470  0.1208E+01  0.5829E+02
     56.736  0.1106E+01  0.5859E+02
     57.002  0.1579E+01  0.5901E+02
     57.269  0.1420E+01  0.5938E+02
     57.535  0.1318E+01  0.5974E+02
     57.801  0.1052E+01  0.6002E+02
     58.068  0.8284E+00  0.6024E+02
     58.334  0.1352E+01  0.6060E+02
     58.600  0.2154E+01  0.6117E+02
     58.866  0.2447E+01  0.6182E+02
     59.133  0.1472E+01  0.6221E+02
     59.399  0.1163E+01  0.6252E+02
     59.665  0.1285E+01  0.6286E+02
     59.931  0.1475E+01  0.6326E+02
     60.198  0.1898E+01  0.6376E+02
     60.464  0.2193E+01  0.6435E+02
     60.730  0.1992E+01  0.6488E+02
     60.997  0.2253E+01  0.6548E+02
     61.263  0.2145E+01  0.6605E+02
     61.529  0.1957E+01  0.6657E+02
     61.795  0.1712E+01  0.6703E+02
     62.062  0.1770E+01  0.6750E+02
     62.328  0.1307E+01  0.6784E+02
     62.594  0.1081E+01  0.6813E+02
     62.860  0.1758E+01  0.6860E+02
     63.127  0.1364E+01  0.6896E+02
     63.393  0.1696E+01  0.6941E+02
     63.659  0.2150E+01  0.6999E+02
     63.926  0.1821E+01  0.7047E+02
     64.192  0.1484E+01  0.7087E+02
     64.458  0.1261E+01  0.7120E+02
     64.724  0.1834E+01  0.7169E+02
     64.991  0.1650E+01  0.7213E+02
     65.257  0.1484E+01  0.7253E+02
     65.523  0.1274E+01  0.7287E+02
     65.789  0.1136E+01  0.7317E+02
     66.056  0.1178E+01  0.7348E+02
     66.322  0.1884E+01  0.7398E+02
     66.588  0.2363E+01  0.7461E+02
     66.855  0.1747E+01  0.7508E+02
     67.121  0.2254E+01  0.7568E+02
     67.387  0.1815E+01  0.7616E+02
     67.653  0.1264E+01  0.7650E+02
     67.920  0.1714E+01  0.7695E+02
     68.186  0.1559E+01  0.7737E+02
     68.452  0.1436E+01  0.7775E+02
     68.718  0.1201E+01  0.7807E+02
     68.985  0.1648E+01  0.7851E+02
     69.251  0.1403E+01  0.7888E+02
     69.517  0.1516E+01  0.7929E+02
     69.784  0.1073E+01  0.7957E+02
     70.050  0.9438E+00  0.7982E+02
     70.316  0.4348E+00  0.7994E+02
     70.582  0.1600E+00  0.7998E+02
     70.849  0.8714E-02  0.7998E+02
     71.115  0.5760E-01  0.8000E+02
     71.381  0.2096E-03  0.8000E+02
     71.647 -0.2913E-03  0.8000E+02
     71.914 -0.2758E-06  0.8000E+02
     72.180 -0.5865E-11  0.8000E+02
     72.446  0.0000E+00  0.8000E+02
     72.713  0.0000E+00  0.8000E+02
     72.979  0.0000E+00  0.8000E+02
     73.245  0.0000E+00  0.8000E+02
     73.511  0.0000E+00  0.8000E+02
     73.778  0.0000E+00  0.8000E+02
     74.044  0.0000E+00  0.8000E+02
     74.310  0.0000E+00  0.8000E+02
     74.576  0.0000E+00  0.8000E+02
