       N       E                     dE             d eps       ncg     rms          rms(c)
DAV:   1     0.599832763746E+02    0.59983E+02   -0.25570E+03  9296   0.326E+02
DAV:   2    -0.146800798084E+02   -0.74663E+02   -0.63691E+02  7936   0.963E+01
DAV:   3    -0.189863026190E+02   -0.43062E+01   -0.41114E+01  9528   0.240E+01
DAV:   4    -0.190037245813E+02   -0.17422E-01   -0.17412E-01  9088   0.160E+00
DAV:   5    -0.190037411030E+02   -0.16522E-04   -0.16522E-04  9232   0.465E-02    0.180E+01
DAV:   6    -0.162197771473E+02    0.27840E+01   -0.16148E+00 11216   0.238E+01    0.184E+00
DAV:   7    -0.160665297906E+02    0.15325E+00   -0.90946E-02 10048   0.456E+00    0.121E+00
DAV:   8    -0.160365941878E+02    0.29936E-01   -0.27058E-03 10032   0.342E-01    0.532E-01
DAV:   9    -0.160269185872E+02    0.96756E-02   -0.93319E-04 10840   0.168E-01    0.572E-02
DAV:  10    -0.160269426772E+02   -0.24090E-04   -0.29712E-05  8680   0.227E-02    0.237E-02
DAV:  11    -0.160269323760E+02    0.10301E-04   -0.28411E-07  8712   0.581E-03    0.195E-03
DAV:  12    -0.160269311461E+02    0.12299E-05   -0.77734E-08  6080   0.147E-03    0.105E-03
DAV:  13    -0.160269314712E+02   -0.32514E-06   -0.76911E-09  5448   0.409E-04
   1 F= -.16026931E+02 E0= -.16027553E+02  d E =0.186447E-02
