 vasp.6.2.0 18Jan21 (build Mar 17 2021 09:06:54) complex                        
  
 executed on             LinuxIFC date 2021.09.09  12:04:21
 serial version


--------------------------------------------------------------------------------------------------------


 INCAR:
   ENCUT = 280.000000
   SIGMA = 0.200000
   EDIFF = 1.00e-06
   GGA = PE
   PREC = normal
   IBRION = 1
   ICHARG = 1
   ISIF = 2
   ISMEAR = 1
   KPAR = 1
   NBANDS = 40
   NSW = 0
   NCORE = 1
   LCHARG = .TRUE.

 POTCAR:    PAW_PBE Fe 06Sep2000                  
 POTCAR:    PAW_PBE Fe 06Sep2000                  
   SHA256 =  cd5a22d9368cc8b5cc476bea79732366149640da08ac9009b0e1b7fc627eea28 Fe/POTCAR             
   COPYR  = (c) Copyright 06Sep2000 Georg Kresse                                                    
   COPYR  = This file is part of the software VASP. Any use, copying, and all other rights are regul
   COPYR  = If you do not have a valid VASP license, you may not use, copy or distribute this file. 
   VRHFIN =Fe:  d7 s1                                                                               
   LEXCH  = PE                                                                                      
   EATOM  =   594.3153 eV,   43.6809 Ry                                                             
                                                                                                    
   TITEL  = PAW_PBE Fe 06Sep2000                                                                    
   LULTRA =        F    use ultrasoft PP ?                                                          
   IUNSCR =        1    unscreen: 0-lin 1-nonlin 2-no                                               
   RPACOR =    2.000    partial core radius                                                         
   POMASS =   55.847; ZVAL   =    8.000    mass and valenz                                          
   RCORE  =    2.300    outmost cutoff radius                                                       
   RWIGS  =    2.460; RWIGS  =    1.302    wigner-seitz radius (au A)                               
   ENMAX  =  267.882; ENMIN  =  200.911 eV                                                          
   RCLOC  =    1.701    cutoff for local pot                                                        
   LCOR   =        T    correct aug charges                                                         
   LPAW   =        T    paw PP                                                                      
   EAUG   =  511.368                                                                                
   DEXC   =    0.000                                                                                
   RMAX   =    2.356    core radius for proj-oper                                                   
   RAUG   =    1.300    factor for augmentation sphere                                              
   RDEP   =    2.442    radius for radial grids                                                     
   RDEPT  =    1.890    core radius for aug-charge                                                  
                                                                                                    
   Atomic configuration                                                                             
    9 entries                                                                                       
     n  l   j            E        occ.                                                              
     1  0  0.50     -6993.8440   2.0000                                                             
     2  0  0.50      -814.6047   2.0000                                                             
     2  1  1.50      -693.3689   6.0000                                                             
     3  0  0.50       -89.4732   2.0000                                                             
     3  1  1.50       -55.6373   6.0000                                                             
     3  2  2.50        -3.8151   7.0000                                                             
     4  0  0.50        -4.2551   1.0000                                                             
     4  1  1.50        -3.4015   0.0000                                                             
     4  3  2.50        -1.3606   0.0000                                                             
   Description                                                                                      
     l       E           TYP  RCUT    TYP  RCUT                                                     
     2     -3.8151135     23  2.300                                                                 
     2     -5.1756961     23  2.300                                                                 
     0     -4.2550963     23  2.300                                                                 
     0      7.2035603     23  2.300                                                                 
     1     -2.7211652     23  2.300                                                                 
     1     18.4316424     23  2.300                                                                 
  local pseudopotential read in
  partial core-charges read in
  partial kinetic energy density read in
  atomic valenz-charges read in
  non local Contribution for L=           2  read in
    real space projection operators read in
  non local Contribution for L=           2  read in
    real space projection operators read in
  non local Contribution for L=           0  read in
    real space projection operators read in
  non local Contribution for L=           0  read in
    real space projection operators read in
  non local Contribution for L=           1  read in
    real space projection operators read in
  non local Contribution for L=           1  read in
    real space projection operators read in
    PAW grid and wavefunctions read in
 
   number of l-projection  operators is LMAX  =           6
   number of lm-projection operators is LMMAX =          18
 
  PAW_PBE Fe 06Sep2000                  :
 energy of atom  1       EATOM= -594.3153
 kinetic energy error for atom=    0.0278 (will be added to EATOM!!)
 
 
 POSCAR: Fe
  positions in cartesian coordinates
  No initial velocities read in
 exchange correlation table for  LEXCH =        8
   RHO(1)=    0.500       N(1)  =     2000
   RHO(2)=  100.500       N(2)  =     4000
 


--------------------------------------------------------------------------------------------------------


 ion  position               nearest neighbor table
   1  0.000  0.000  0.000-   2 2.45   2 2.45   2 2.45   2 2.45   2 2.45   2 2.45
   2  0.333  0.667  0.500-   1 2.45   1 2.45   1 2.45   1 2.45   1 2.45   1 2.45
 
  LATTYP: Found a hexagonal cell.
 ALAT       =     2.3300000000
 C/A-ratio  =     1.7596566524
  
  Lattice vectors:
  
 A1 = (   2.3300000000,   0.0000000000,   0.0000000000)
 A2 = (  -1.1650000000,   2.0178391908,   0.0000000000)
 A3 = (   0.0000000000,   0.0000000000,   4.1000000000)


Analysis of symmetry for initial positions (statically):
=====================================================================
 Subroutine PRICEL returns:
 Original cell was already a primitive cell.
 

 Routine SETGRP: Setting up the symmetry group for a 
 hexagonal supercell.


 Subroutine GETGRP returns: Found 24 space group operations
 (whereof 12 operations were pure point group operations)
 out of a pool of 24 trial point group operations.


The static configuration has the point symmetry D_3h.
 The point group associated with its full space group is D_6h.


Analysis of symmetry for dynamics (positions and initial velocities):
=====================================================================
 Subroutine PRICEL returns:
 Original cell was already a primitive cell.
 

 Routine SETGRP: Setting up the symmetry group for a 
 hexagonal supercell.


 Subroutine GETGRP returns: Found 24 space group operations
 (whereof 12 operations were pure point group operations)
 out of a pool of 24 trial point group operations.


The dynamic configuration has the point symmetry D_3h.
 The point group associated with its full space group is D_6h.


 Subroutine INISYM returns: Found 24 space group operations
 (whereof 12 operations are pure point group operations),
 and found     1 'primitive' translations


----------------------------------------------------------------------------------------

                                     Primitive cell                                     

  volume of cell :      19.2764

  direct lattice vectors                    reciprocal lattice vectors
     2.330000000  0.000000000  0.000000000     0.429184549  0.247789815  0.000000000
    -1.165000000  2.017839191  0.000000000     0.000000000  0.495579630  0.000000000
     0.000000000  0.000000000  4.100000000     0.000000000  0.000000000  0.243902439

  length of vectors
     2.330000000  2.330000000  4.100000000     0.495579630  0.495579630  0.243902439

  position of ions in fractional coordinates (direct lattice)
     0.000000000  0.000000000  0.000000000
     0.333333333  0.666666667  0.500000000

  ion indices of the primitive-cell ions
   primitive index   ion index
                 1           1
                 2           2

----------------------------------------------------------------------------------------

 
 
 KPOINTS: KPOINTS created by Atomic Simulation Env

Automatic generation of k-mesh.
 Grid dimensions read from file:
 generate k-points for:   11   11   11

 Generating k-lattice:

  Cartesian coordinates                     Fractional coordinates (reciprocal lattice)
     0.039016777  0.022526347  0.000000000     0.090909091 -0.000000000  0.000000000
     0.000000000  0.045052694  0.000000000     0.000000000  0.090909091  0.000000000
     0.000000000  0.000000000  0.022172949     0.000000000  0.000000000  0.090909091

  Length of vectors
     0.045052694  0.045052694  0.022172949

  Shift w.r.t. Gamma in fractional coordinates (k-lattice)
     0.000000000  0.000000000  0.000000000

 
 Subroutine IBZKPT returns following result:
 ===========================================
 
 Found     96 irreducible k-points:
 
 Following reciprocal coordinates:
            Coordinates               Weight
  0.000000  0.000000  0.000000      1.000000
  0.090909 -0.000000  0.000000      6.000000
  0.181818 -0.000000  0.000000      6.000000
  0.272727 -0.000000  0.000000      6.000000
  0.363636 -0.000000  0.000000      6.000000
  0.454545 -0.000000  0.000000      6.000000
  0.090909  0.090909  0.000000      6.000000
  0.181818  0.090909  0.000000     12.000000
  0.272727  0.090909  0.000000     12.000000
  0.363636  0.090909  0.000000     12.000000
  0.454545  0.090909  0.000000      6.000000
  0.181818  0.181818  0.000000      6.000000
  0.272727  0.181818  0.000000     12.000000
  0.363636  0.181818  0.000000     12.000000
  0.272727  0.272727  0.000000      6.000000
  0.363636  0.272727  0.000000      6.000000
  0.000000  0.000000  0.090909      2.000000
  0.090909 -0.000000  0.090909     12.000000
  0.181818 -0.000000  0.090909     12.000000
  0.272727 -0.000000  0.090909     12.000000
  0.363636 -0.000000  0.090909     12.000000
  0.454545 -0.000000  0.090909     12.000000
  0.090909  0.090909  0.090909     12.000000
  0.181818  0.090909  0.090909     24.000000
  0.272727  0.090909  0.090909     24.000000
  0.363636  0.090909  0.090909     24.000000
  0.454545  0.090909  0.090909     12.000000
  0.181818  0.181818  0.090909     12.000000
  0.272727  0.181818  0.090909     24.000000
  0.363636  0.181818  0.090909     24.000000
  0.272727  0.272727  0.090909     12.000000
  0.363636  0.272727  0.090909     12.000000
  0.000000  0.000000  0.181818      2.000000
  0.090909 -0.000000  0.181818     12.000000
  0.181818 -0.000000  0.181818     12.000000
  0.272727 -0.000000  0.181818     12.000000
  0.363636 -0.000000  0.181818     12.000000
  0.454545 -0.000000  0.181818     12.000000
  0.090909  0.090909  0.181818     12.000000
  0.181818  0.090909  0.181818     24.000000
  0.272727  0.090909  0.181818     24.000000
  0.363636  0.090909  0.181818     24.000000
  0.454545  0.090909  0.181818     12.000000
  0.181818  0.181818  0.181818     12.000000
  0.272727  0.181818  0.181818     24.000000
  0.363636  0.181818  0.181818     24.000000
  0.272727  0.272727  0.181818     12.000000
  0.363636  0.272727  0.181818     12.000000
  0.000000  0.000000  0.272727      2.000000
  0.090909 -0.000000  0.272727     12.000000
  0.181818 -0.000000  0.272727     12.000000
  0.272727 -0.000000  0.272727     12.000000
  0.363636 -0.000000  0.272727     12.000000
  0.454545 -0.000000  0.272727     12.000000
  0.090909  0.090909  0.272727     12.000000
  0.181818  0.090909  0.272727     24.000000
  0.272727  0.090909  0.272727     24.000000
  0.363636  0.090909  0.272727     24.000000
  0.454545  0.090909  0.272727     12.000000
  0.181818  0.181818  0.272727     12.000000
  0.272727  0.181818  0.272727     24.000000
  0.363636  0.181818  0.272727     24.000000
  0.272727  0.272727  0.272727     12.000000
  0.363636  0.272727  0.272727     12.000000
  0.000000  0.000000  0.363636      2.000000
  0.090909 -0.000000  0.363636     12.000000
  0.181818 -0.000000  0.363636     12.000000
  0.272727 -0.000000  0.363636     12.000000
  0.363636 -0.000000  0.363636     12.000000
  0.454545 -0.000000  0.363636     12.000000
  0.090909  0.090909  0.363636     12.000000
  0.181818  0.090909  0.363636     24.000000
  0.272727  0.090909  0.363636     24.000000
  0.363636  0.090909  0.363636     24.000000
  0.454545  0.090909  0.363636     12.000000
  0.181818  0.181818  0.363636     12.000000
  0.272727  0.181818  0.363636     24.000000
  0.363636  0.181818  0.363636     24.000000
  0.272727  0.272727  0.363636     12.000000
  0.363636  0.272727  0.363636     12.000000
  0.000000  0.000000  0.454545      2.000000
  0.090909 -0.000000  0.454545     12.000000
  0.181818 -0.000000  0.454545     12.000000
  0.272727 -0.000000  0.454545     12.000000
  0.363636 -0.000000  0.454545     12.000000
  0.454545 -0.000000  0.454545     12.000000
  0.090909  0.090909  0.454545     12.000000
  0.181818  0.090909  0.454545     24.000000
  0.272727  0.090909  0.454545     24.000000
  0.363636  0.090909  0.454545     24.000000
  0.454545  0.090909  0.454545     12.000000
  0.181818  0.181818  0.454545     12.000000
  0.272727  0.181818  0.454545     24.000000
  0.363636  0.181818  0.454545     24.000000
  0.272727  0.272727  0.454545     12.000000
  0.363636  0.272727  0.454545     12.000000
 
 Following cartesian coordinates:
            Coordinates               Weight
  0.000000  0.000000  0.000000      1.000000
  0.039017  0.022526  0.000000      6.000000
  0.078034  0.045053  0.000000      6.000000
  0.117050  0.067579  0.000000      6.000000
  0.156067  0.090105  0.000000      6.000000
  0.195084  0.112632  0.000000      6.000000
  0.039017  0.067579  0.000000      6.000000
  0.078034  0.090105  0.000000     12.000000
  0.117050  0.112632  0.000000     12.000000
  0.156067  0.135158  0.000000     12.000000
  0.195084  0.157684  0.000000      6.000000
  0.078034  0.135158  0.000000      6.000000
  0.117050  0.157684  0.000000     12.000000
  0.156067  0.180211  0.000000     12.000000
  0.117050  0.202737  0.000000      6.000000
  0.156067  0.225263  0.000000      6.000000
  0.000000  0.000000  0.022173      2.000000
  0.039017  0.022526  0.022173     12.000000
  0.078034  0.045053  0.022173     12.000000
  0.117050  0.067579  0.022173     12.000000
  0.156067  0.090105  0.022173     12.000000
  0.195084  0.112632  0.022173     12.000000
  0.039017  0.067579  0.022173     12.000000
  0.078034  0.090105  0.022173     24.000000
  0.117050  0.112632  0.022173     24.000000
  0.156067  0.135158  0.022173     24.000000
  0.195084  0.157684  0.022173     12.000000
  0.078034  0.135158  0.022173     12.000000
  0.117050  0.157684  0.022173     24.000000
  0.156067  0.180211  0.022173     24.000000
  0.117050  0.202737  0.022173     12.000000
  0.156067  0.225263  0.022173     12.000000
  0.000000  0.000000  0.044346      2.000000
  0.039017  0.022526  0.044346     12.000000
  0.078034  0.045053  0.044346     12.000000
  0.117050  0.067579  0.044346     12.000000
  0.156067  0.090105  0.044346     12.000000
  0.195084  0.112632  0.044346     12.000000
  0.039017  0.067579  0.044346     12.000000
  0.078034  0.090105  0.044346     24.000000
  0.117050  0.112632  0.044346     24.000000
  0.156067  0.135158  0.044346     24.000000
  0.195084  0.157684  0.044346     12.000000
  0.078034  0.135158  0.044346     12.000000
  0.117050  0.157684  0.044346     24.000000
  0.156067  0.180211  0.044346     24.000000
  0.117050  0.202737  0.044346     12.000000
  0.156067  0.225263  0.044346     12.000000
  0.000000  0.000000  0.066519      2.000000
  0.039017  0.022526  0.066519     12.000000
  0.078034  0.045053  0.066519     12.000000
  0.117050  0.067579  0.066519     12.000000
  0.156067  0.090105  0.066519     12.000000
  0.195084  0.112632  0.066519     12.000000
  0.039017  0.067579  0.066519     12.000000
  0.078034  0.090105  0.066519     24.000000
  0.117050  0.112632  0.066519     24.000000
  0.156067  0.135158  0.066519     24.000000
  0.195084  0.157684  0.066519     12.000000
  0.078034  0.135158  0.066519     12.000000
  0.117050  0.157684  0.066519     24.000000
  0.156067  0.180211  0.066519     24.000000
  0.117050  0.202737  0.066519     12.000000
  0.156067  0.225263  0.066519     12.000000
  0.000000  0.000000  0.088692      2.000000
  0.039017  0.022526  0.088692     12.000000
  0.078034  0.045053  0.088692     12.000000
  0.117050  0.067579  0.088692     12.000000
  0.156067  0.090105  0.088692     12.000000
  0.195084  0.112632  0.088692     12.000000
  0.039017  0.067579  0.088692     12.000000
  0.078034  0.090105  0.088692     24.000000
  0.117050  0.112632  0.088692     24.000000
  0.156067  0.135158  0.088692     24.000000
  0.195084  0.157684  0.088692     12.000000
  0.078034  0.135158  0.088692     12.000000
  0.117050  0.157684  0.088692     24.000000
  0.156067  0.180211  0.088692     24.000000
  0.117050  0.202737  0.088692     12.000000
  0.156067  0.225263  0.088692     12.000000
  0.000000  0.000000  0.110865      2.000000
  0.039017  0.022526  0.110865     12.000000
  0.078034  0.045053  0.110865     12.000000
  0.117050  0.067579  0.110865     12.000000
  0.156067  0.090105  0.110865     12.000000
  0.195084  0.112632  0.110865     12.000000
  0.039017  0.067579  0.110865     12.000000
  0.078034  0.090105  0.110865     24.000000
  0.117050  0.112632  0.110865     24.000000
  0.156067  0.135158  0.110865     24.000000
  0.195084  0.157684  0.110865     12.000000
  0.078034  0.135158  0.110865     12.000000
  0.117050  0.157684  0.110865     24.000000
  0.156067  0.180211  0.110865     24.000000
  0.117050  0.202737  0.110865     12.000000
  0.156067  0.225263  0.110865     12.000000
 


--------------------------------------------------------------------------------------------------------




 Dimension of arrays:
   k-points           NKPTS =     96   k-points in BZ     NKDIM =     96   number of bands    NBANDS=     40
   number of dos      NEDOS =    301   number of ions     NIONS =      2
   non local maximal  LDIM  =      6   non local SUM 2l+1 LMDIM =     18
   total plane-waves  NPLWV =   1800
   max r-space proj   IRMAX =      1   max aug-charges    IRDMAX=   3525
   dimension x,y,z NGX =    10 NGY =   10 NGZ =   18
   dimension x,y,z NGXF=    20 NGYF=   20 NGZF=   36
   support grid    NGXF=    20 NGYF=   20 NGZF=   36
   ions per type =               2
   NGX,Y,Z   is equivalent  to a cutoff of   7.14,  7.14,  7.30 a.u.
   NGXF,Y,Z  is equivalent  to a cutoff of  14.27, 14.27, 14.60 a.u.

 SYSTEM =  unknown system                          
 POSCAR =  Fe                                      

 Startparameter for this run:
   NWRITE =      2    write-flag & timer
   PREC   = normal    normal or accurate (medium, high low for compatibility)
   ISTART =      0    job   : 0-new  1-cont  2-samecut
   ICHARG =      1    charge: 1-file 2-atom 10-const
   ISPIN  =      1    spin polarized calculation?
   LNONCOLLINEAR =      F non collinear calculations
   LSORBIT =      F    spin-orbit coupling
   INIWAV =      1    electr: 0-lowe 1-rand  2-diag
   LASPH  =      F    aspherical Exc in radial PAW
   METAGGA=      F    non-selfconsistent MetaGGA calc.

 Electronic Relaxation 1
   ENCUT  =  280.0 eV  20.58 Ry    4.54 a.u.   3.18  3.18  5.59*2*pi/ulx,y,z
   ENINI  =  280.0     initial cutoff
   ENAUG  =  511.4 eV  augmentation charge cutoff
   NELM   =     60;   NELMIN=  2; NELMDL= -5     # of ELM steps 
   EDIFF  = 0.1E-05   stopping-criterion for ELM
   LREAL  =      F    real-space projection
   NLSPLINE    = F    spline interpolate recip. space projectors
   LCOMPAT=      F    compatible to vasp.4.4
   GGA_COMPAT  = T    GGA compatible to vasp.4.4-vasp.4.6
   LMAXPAW     = -100 max onsite density
   LMAXMIX     =    2 max onsite mixed and CHGCAR
   VOSKOWN=      0    Vosko Wilk Nusair interpolation
   ROPT   =    0.00000
 Ionic relaxation
   EDIFFG = 0.1E-04   stopping-criterion for IOM
   NSW    =      0    number of steps for IOM
   NBLOCK =      1;   KBLOCK =      1    inner block; outer block 
   IBRION =     -1    ionic relax: 0-MD 1-quasi-New 2-CG
   NFREE  =      0    steps in history (QN), initial steepest desc. (CG)
   ISIF   =      2    stress and relaxation
   IWAVPR =      0    prediction:  0-non 1-charg 2-wave 3-comb
   ISYM   =      2    0-nonsym 1-usesym 2-fastsym
   LCORR  =      T    Harris-Foulkes like correction to forces

   POTIM  = 0.5000    time-step for ionic-motion
   TEIN   =    0.0    initial temperature
   TEBEG  =    0.0;   TEEND  =   0.0 temperature during run
   SMASS  =  -3.00    Nose mass-parameter (am)
   estimated Nose-frequenzy (Omega)   =  0.10E-29 period in steps = 0.13E+47 mass=  -0.124E-27a.u.
   SCALEE = 1.0000    scale energy and forces
   NPACO  =    256;   APACO  = 16.0  distance and # of slots for P.C.
   PSTRESS=    0.0 pullay stress

  Mass of Ions in am
   POMASS =  55.85
  Ionic Valenz
   ZVAL   =   8.00
  Atomic Wigner-Seitz radii
   RWIGS  =  -1.00
  virtual crystal weights 
   VCA    =   1.00
   NELECT =      16.0000    total number of electrons
   NUPDOWN=      -1.0000    fix difference up-down

 DOS related values:
   EMIN   =  10.00;   EMAX   =-10.00  energy-range for DOS
   EFERMI =   0.00
   ISMEAR =     1;   SIGMA  =   0.20  broadening in eV -4-tet -1-fermi 0-gaus

 Electronic relaxation 2 (details)
   IALGO  =     38    algorithm
   LDIAG  =      T    sub-space diagonalisation (order eigenvalues)
   LSUBROT=      F    optimize rotation matrix (better conditioning)
   TURBO    =      0    0=normal 1=particle mesh
   IRESTART =      0    0=no restart 2=restart with 2 vectors
   NREBOOT  =      0    no. of reboots
   NMIN     =      0    reboot dimension
   EREF     =   0.00    reference energy to select bands
   IMIX   =      4    mixing-type and parameters
     AMIX     =   0.40;   BMIX     =  1.00
     AMIX_MAG =   1.60;   BMIX_MAG =  1.00
     AMIN     =   0.10
     WC   =   100.;   INIMIX=   1;  MIXPRE=   1;  MAXMIX= -45

 Intra band minimization:
   WEIMIN = 0.0000     energy-eigenvalue tresh-hold
   EBREAK =  0.62E-08  absolut break condition
   DEPER  =   0.30     relativ break condition  

   TIME   =   0.40     timestep for ELM

  volume/ion in A,a.u.               =       9.64        65.04
  Fermi-wavevector in a.u.,A,eV,Ry     =   1.538530  2.907401 32.206016  2.367075
  Thomas-Fermi vector in A             =   2.644886
 
 Write flags
   LWAVE        =      T    write WAVECAR
   LDOWNSAMPLE  =      F    k-point downsampling of WAVECAR
   LCHARG       =      T    write CHGCAR
   LVTOT        =      F    write LOCPOT, total local potential
   LVHAR        =      F    write LOCPOT, Hartree potential only
   LELF         =      F    write electronic localiz. function (ELF)
   LORBIT       =      0    0 simple, 1 ext, 2 COOP (PROOUT), +10 PAW based schemes


 Dipole corrections
   LMONO  =      F    monopole corrections only (constant potential shift)
   LDIPOL =      F    correct potential (dipole corrections)
   IDIPOL =      0    1-x, 2-y, 3-z, 4-all directions 
   EPSILON=  1.0000000 bulk dielectric constant

 Exchange correlation treatment:
   GGA     =    PE    GGA type
   LEXCH   =     8    internal setting for exchange type
   VOSKOWN=      0    Vosko Wilk Nusair interpolation
   LHFCALC =     F    Hartree Fock is set to
   LHFONE  =     F    Hartree Fock one center treatment
   AEXX    =    0.0000 exact exchange contribution

 Linear response parameters
   LEPSILON=     F    determine dielectric tensor
   LRPA    =     F    only Hartree local field effects (RPA)
   LNABLA  =     F    use nabla operator in PAW spheres
   LVEL    =     F    velocity operator in full k-point grid
   LINTERFAST=   F  fast interpolation
   KINTER  =     0    interpolate to denser k-point grid
   CSHIFT  =0.1000    complex shift for real part using Kramers Kronig
   OMEGAMAX=  -1.0    maximum frequency
   DEG_THRESHOLD= 0.2000000E-02 threshold for treating states as degnerate
   RTIME   =   -0.100 relaxation time in fs
  (WPLASMAI=    0.000 imaginary part of plasma frequency in eV, 0.658/RTIME)
   DFIELD  = 0.0000000 0.0000000 0.0000000 field for delta impulse in time
 
 Orbital magnetization related:
   ORBITALMAG=     F  switch on orbital magnetization
   LCHIMAG   =     F  perturbation theory with respect to B field
   DQ        =  0.001000  dq finite difference perturbation B field
   LLRAUG    =     F  two centre corrections for induced B field



--------------------------------------------------------------------------------------------------------


 Static calculation
 charge density and potential will be updated during run
 non-spin polarized calculation
 Variant of blocked Davidson
 Davidson routine will perform the subspace rotation
 perform sub-space diagonalisation
    after iterative eigenvector-optimisation
 modified Broyden-mixing scheme, WC =      100.0
 initial mixing is a Kerker type mixing with AMIX =  0.4000 and BMIX =      1.0000
 Hartree-type preconditioning will be used
 using additional bands           32
 reciprocal scheme for non local part
 use partial core corrections
 calculate Harris-corrections to forces 
   (improved forces if not selfconsistent)
 use gradient corrections 
 use of overlap-Matrix (Vanderbilt PP)
 Methfessel and Paxton  Order N= 1 SIGMA  =   0.20


--------------------------------------------------------------------------------------------------------


  energy-cutoff  :      280.00
  volume of cell :       19.28
      direct lattice vectors                 reciprocal lattice vectors
     2.330000000  0.000000000  0.000000000     0.429184549  0.247789815  0.000000000
    -1.165000000  2.017839191  0.000000000     0.000000000  0.495579630  0.000000000
     0.000000000  0.000000000  4.100000000     0.000000000  0.000000000  0.243902439

  length of vectors
     2.330000000  2.330000000  4.100000000     0.495579630  0.495579630  0.243902439


 
 k-points in units of 2pi/SCALE and weight: KPOINTS created by Atomic Simulation Env
   0.00000000  0.00000000  0.00000000       0.001
   0.03901678  0.02252635  0.00000000       0.005
   0.07803355  0.04505269  0.00000000       0.005
   0.11705033  0.06757904  0.00000000       0.005
   0.15606711  0.09010539  0.00000000       0.005
   0.19508389  0.11263173  0.00000000       0.005
   0.03901678  0.06757904  0.00000000       0.005
   0.07803355  0.09010539  0.00000000       0.009
   0.11705033  0.11263173  0.00000000       0.009
   0.15606711  0.13515808  0.00000000       0.009
   0.19508389  0.15768443  0.00000000       0.005
   0.07803355  0.13515808  0.00000000       0.005
   0.11705033  0.15768443  0.00000000       0.009
   0.15606711  0.18021077  0.00000000       0.009
   0.11705033  0.20273712  0.00000000       0.005
   0.15606711  0.22526347  0.00000000       0.005
   0.00000000  0.00000000  0.02217295       0.002
   0.03901678  0.02252635  0.02217295       0.009
   0.07803355  0.04505269  0.02217295       0.009
   0.11705033  0.06757904  0.02217295       0.009
   0.15606711  0.09010539  0.02217295       0.009
   0.19508389  0.11263173  0.02217295       0.009
   0.03901678  0.06757904  0.02217295       0.009
   0.07803355  0.09010539  0.02217295       0.018
   0.11705033  0.11263173  0.02217295       0.018
   0.15606711  0.13515808  0.02217295       0.018
   0.19508389  0.15768443  0.02217295       0.009
   0.07803355  0.13515808  0.02217295       0.009
   0.11705033  0.15768443  0.02217295       0.018
   0.15606711  0.18021077  0.02217295       0.018
   0.11705033  0.20273712  0.02217295       0.009
   0.15606711  0.22526347  0.02217295       0.009
   0.00000000  0.00000000  0.04434590       0.002
   0.03901678  0.02252635  0.04434590       0.009
   0.07803355  0.04505269  0.04434590       0.009
   0.11705033  0.06757904  0.04434590       0.009
   0.15606711  0.09010539  0.04434590       0.009
   0.19508389  0.11263173  0.04434590       0.009
   0.03901678  0.06757904  0.04434590       0.009
   0.07803355  0.09010539  0.04434590       0.018
   0.11705033  0.11263173  0.04434590       0.018
   0.15606711  0.13515808  0.04434590       0.018
   0.19508389  0.15768443  0.04434590       0.009
   0.07803355  0.13515808  0.04434590       0.009
   0.11705033  0.15768443  0.04434590       0.018
   0.15606711  0.18021077  0.04434590       0.018
   0.11705033  0.20273712  0.04434590       0.009
   0.15606711  0.22526347  0.04434590       0.009
   0.00000000  0.00000000  0.06651885       0.002
   0.03901678  0.02252635  0.06651885       0.009
   0.07803355  0.04505269  0.06651885       0.009
   0.11705033  0.06757904  0.06651885       0.009
   0.15606711  0.09010539  0.06651885       0.009
   0.19508389  0.11263173  0.06651885       0.009
   0.03901678  0.06757904  0.06651885       0.009
   0.07803355  0.09010539  0.06651885       0.018
   0.11705033  0.11263173  0.06651885       0.018
   0.15606711  0.13515808  0.06651885       0.018
   0.19508389  0.15768443  0.06651885       0.009
   0.07803355  0.13515808  0.06651885       0.009
   0.11705033  0.15768443  0.06651885       0.018
   0.15606711  0.18021077  0.06651885       0.018
   0.11705033  0.20273712  0.06651885       0.009
   0.15606711  0.22526347  0.06651885       0.009
   0.00000000  0.00000000  0.08869180       0.002
   0.03901678  0.02252635  0.08869180       0.009
   0.07803355  0.04505269  0.08869180       0.009
   0.11705033  0.06757904  0.08869180       0.009
   0.15606711  0.09010539  0.08869180       0.009
   0.19508389  0.11263173  0.08869180       0.009
   0.03901678  0.06757904  0.08869180       0.009
   0.07803355  0.09010539  0.08869180       0.018
   0.11705033  0.11263173  0.08869180       0.018
   0.15606711  0.13515808  0.08869180       0.018
   0.19508389  0.15768443  0.08869180       0.009
   0.07803355  0.13515808  0.08869180       0.009
   0.11705033  0.15768443  0.08869180       0.018
   0.15606711  0.18021077  0.08869180       0.018
   0.11705033  0.20273712  0.08869180       0.009
   0.15606711  0.22526347  0.08869180       0.009
   0.00000000  0.00000000  0.11086475       0.002
   0.03901678  0.02252635  0.11086475       0.009
   0.07803355  0.04505269  0.11086475       0.009
   0.11705033  0.06757904  0.11086475       0.009
   0.15606711  0.09010539  0.11086475       0.009
   0.19508389  0.11263173  0.11086475       0.009
   0.03901678  0.06757904  0.11086475       0.009
   0.07803355  0.09010539  0.11086475       0.018
   0.11705033  0.11263173  0.11086475       0.018
   0.15606711  0.13515808  0.11086475       0.018
   0.19508389  0.15768443  0.11086475       0.009
   0.07803355  0.13515808  0.11086475       0.009
   0.11705033  0.15768443  0.11086475       0.018
   0.15606711  0.18021077  0.11086475       0.018
   0.11705033  0.20273712  0.11086475       0.009
   0.15606711  0.22526347  0.11086475       0.009
 
 k-points in reciprocal lattice and weights: KPOINTS created by Atomic Simulation Env
   0.00000000  0.00000000  0.00000000       0.001
   0.09090909 -0.00000000  0.00000000       0.005
   0.18181818 -0.00000000  0.00000000       0.005
   0.27272727 -0.00000000  0.00000000       0.005
   0.36363636 -0.00000000  0.00000000       0.005
   0.45454545 -0.00000000  0.00000000       0.005
   0.09090909  0.09090909  0.00000000       0.005
   0.18181818  0.09090909  0.00000000       0.009
   0.27272727  0.09090909  0.00000000       0.009
   0.36363636  0.09090909  0.00000000       0.009
   0.45454545  0.09090909  0.00000000       0.005
   0.18181818  0.18181818  0.00000000       0.005
   0.27272727  0.18181818  0.00000000       0.009
   0.36363636  0.18181818  0.00000000       0.009
   0.27272727  0.27272727  0.00000000       0.005
   0.36363636  0.27272727  0.00000000       0.005
   0.00000000  0.00000000  0.09090909       0.002
   0.09090909 -0.00000000  0.09090909       0.009
   0.18181818 -0.00000000  0.09090909       0.009
   0.27272727 -0.00000000  0.09090909       0.009
   0.36363636 -0.00000000  0.09090909       0.009
   0.45454545 -0.00000000  0.09090909       0.009
   0.09090909  0.09090909  0.09090909       0.009
   0.18181818  0.09090909  0.09090909       0.018
   0.27272727  0.09090909  0.09090909       0.018
   0.36363636  0.09090909  0.09090909       0.018
   0.45454545  0.09090909  0.09090909       0.009
   0.18181818  0.18181818  0.09090909       0.009
   0.27272727  0.18181818  0.09090909       0.018
   0.36363636  0.18181818  0.09090909       0.018
   0.27272727  0.27272727  0.09090909       0.009
   0.36363636  0.27272727  0.09090909       0.009
   0.00000000  0.00000000  0.18181818       0.002
   0.09090909 -0.00000000  0.18181818       0.009
   0.18181818 -0.00000000  0.18181818       0.009
   0.27272727 -0.00000000  0.18181818       0.009
   0.36363636 -0.00000000  0.18181818       0.009
   0.45454545 -0.00000000  0.18181818       0.009
   0.09090909  0.09090909  0.18181818       0.009
   0.18181818  0.09090909  0.18181818       0.018
   0.27272727  0.09090909  0.18181818       0.018
   0.36363636  0.09090909  0.18181818       0.018
   0.45454545  0.09090909  0.18181818       0.009
   0.18181818  0.18181818  0.18181818       0.009
   0.27272727  0.18181818  0.18181818       0.018
   0.36363636  0.18181818  0.18181818       0.018
   0.27272727  0.27272727  0.18181818       0.009
   0.36363636  0.27272727  0.18181818       0.009
   0.00000000  0.00000000  0.27272727       0.002
   0.09090909 -0.00000000  0.27272727       0.009
   0.18181818 -0.00000000  0.27272727       0.009
   0.27272727 -0.00000000  0.27272727       0.009
   0.36363636 -0.00000000  0.27272727       0.009
   0.45454545 -0.00000000  0.27272727       0.009
   0.09090909  0.09090909  0.27272727       0.009
   0.18181818  0.09090909  0.27272727       0.018
   0.27272727  0.09090909  0.27272727       0.018
   0.36363636  0.09090909  0.27272727       0.018
   0.45454545  0.09090909  0.27272727       0.009
   0.18181818  0.18181818  0.27272727       0.009
   0.27272727  0.18181818  0.27272727       0.018
   0.36363636  0.18181818  0.27272727       0.018
   0.27272727  0.27272727  0.27272727       0.009
   0.36363636  0.27272727  0.27272727       0.009
   0.00000000  0.00000000  0.36363636       0.002
   0.09090909 -0.00000000  0.36363636       0.009
   0.18181818 -0.00000000  0.36363636       0.009
   0.27272727 -0.00000000  0.36363636       0.009
   0.36363636 -0.00000000  0.36363636       0.009
   0.45454545 -0.00000000  0.36363636       0.009
   0.09090909  0.09090909  0.36363636       0.009
   0.18181818  0.09090909  0.36363636       0.018
   0.27272727  0.09090909  0.36363636       0.018
   0.36363636  0.09090909  0.36363636       0.018
   0.45454545  0.09090909  0.36363636       0.009
   0.18181818  0.18181818  0.36363636       0.009
   0.27272727  0.18181818  0.36363636       0.018
   0.36363636  0.18181818  0.36363636       0.018
   0.27272727  0.27272727  0.36363636       0.009
   0.36363636  0.27272727  0.36363636       0.009
   0.00000000  0.00000000  0.45454545       0.002
   0.09090909 -0.00000000  0.45454545       0.009
   0.18181818 -0.00000000  0.45454545       0.009
   0.27272727 -0.00000000  0.45454545       0.009
   0.36363636 -0.00000000  0.45454545       0.009
   0.45454545 -0.00000000  0.45454545       0.009
   0.09090909  0.09090909  0.45454545       0.009
   0.18181818  0.09090909  0.45454545       0.018
   0.27272727  0.09090909  0.45454545       0.018
   0.36363636  0.09090909  0.45454545       0.018
   0.45454545  0.09090909  0.45454545       0.009
   0.18181818  0.18181818  0.45454545       0.009
   0.27272727  0.18181818  0.45454545       0.018
   0.36363636  0.18181818  0.45454545       0.018
   0.27272727  0.27272727  0.45454545       0.009
   0.36363636  0.27272727  0.45454545       0.009
 
 position of ions in fractional coordinates (direct lattice) 
   0.00000000  0.00000000  0.00000000
   0.33333333  0.66666667  0.50000000
 
 position of ions in cartesian coordinates  (Angst):
   0.00000000  0.00000000  0.00000000
   0.00000000  1.34522613  2.05000000
 


--------------------------------------------------------------------------------------------------------


 k-point   1 :   0.0000 0.0000 0.0000  plane waves:     209
 k-point   2 :   0.0909-0.0000 0.0000  plane waves:     207
 k-point   3 :   0.1818-0.0000 0.0000  plane waves:     211
 k-point   4 :   0.2727-0.0000 0.0000  plane waves:     202
 k-point   5 :   0.3636-0.0000 0.0000  plane waves:     206
 k-point   6 :   0.4545-0.0000 0.0000  plane waves:     206
 k-point   7 :   0.0909 0.0909 0.0000  plane waves:     211
 k-point   8 :   0.1818 0.0909 0.0000  plane waves:     206
 k-point   9 :   0.2727 0.0909 0.0000  plane waves:     205
 k-point  10 :   0.3636 0.0909 0.0000  plane waves:     210
 k-point  11 :   0.4545 0.0909 0.0000  plane waves:     206
 k-point  12 :   0.1818 0.1818 0.0000  plane waves:     203
 k-point  13 :   0.2727 0.1818 0.0000  plane waves:     203
 k-point  14 :   0.3636 0.1818 0.0000  plane waves:     205
 k-point  15 :   0.2727 0.2727 0.0000  plane waves:     203
 k-point  16 :   0.3636 0.2727 0.0000  plane waves:     211
 k-point  17 :   0.0000 0.0000 0.0909  plane waves:     209
 k-point  18 :   0.0909-0.0000 0.0909  plane waves:     210
 k-point  19 :   0.1818-0.0000 0.0909  plane waves:     206
 k-point  20 :   0.2727-0.0000 0.0909  plane waves:     201
 k-point  21 :   0.3636-0.0000 0.0909  plane waves:     202
 k-point  22 :   0.4545-0.0000 0.0909  plane waves:     206
 k-point  23 :   0.0909 0.0909 0.0909  plane waves:     208
 k-point  24 :   0.1818 0.0909 0.0909  plane waves:     205
 k-point  25 :   0.2727 0.0909 0.0909  plane waves:     205
 k-point  26 :   0.3636 0.0909 0.0909  plane waves:     209
 k-point  27 :   0.4545 0.0909 0.0909  plane waves:     210
 k-point  28 :   0.1818 0.1818 0.0909  plane waves:     203
 k-point  29 :   0.2727 0.1818 0.0909  plane waves:     203
 k-point  30 :   0.3636 0.1818 0.0909  plane waves:     207
 k-point  31 :   0.2727 0.2727 0.0909  plane waves:     204
 k-point  32 :   0.3636 0.2727 0.0909  plane waves:     207
 k-point  33 :   0.0000 0.0000 0.1818  plane waves:     215
 k-point  34 :   0.0909-0.0000 0.1818  plane waves:     207
 k-point  35 :   0.1818-0.0000 0.1818  plane waves:     204
 k-point  36 :   0.2727-0.0000 0.1818  plane waves:     202
 k-point  37 :   0.3636-0.0000 0.1818  plane waves:     204
 k-point  38 :   0.4545-0.0000 0.1818  plane waves:     209
 k-point  39 :   0.0909 0.0909 0.1818  plane waves:     206
 k-point  40 :   0.1818 0.0909 0.1818  plane waves:     204
 k-point  41 :   0.2727 0.0909 0.1818  plane waves:     207
 k-point  42 :   0.3636 0.0909 0.1818  plane waves:     207
 k-point  43 :   0.4545 0.0909 0.1818  plane waves:     212
 k-point  44 :   0.1818 0.1818 0.1818  plane waves:     199
 k-point  45 :   0.2727 0.1818 0.1818  plane waves:     208
 k-point  46 :   0.3636 0.1818 0.1818  plane waves:     205
 k-point  47 :   0.2727 0.2727 0.1818  plane waves:     208
 k-point  48 :   0.3636 0.2727 0.1818  plane waves:     205
 k-point  49 :   0.0000 0.0000 0.2727  plane waves:     209
 k-point  50 :   0.0909-0.0000 0.2727  plane waves:     205
 k-point  51 :   0.1818-0.0000 0.2727  plane waves:     201
 k-point  52 :   0.2727-0.0000 0.2727  plane waves:     207
 k-point  53 :   0.3636-0.0000 0.2727  plane waves:     208
 k-point  54 :   0.4545-0.0000 0.2727  plane waves:     204
 k-point  55 :   0.0909 0.0909 0.2727  plane waves:     200
 k-point  56 :   0.1818 0.0909 0.2727  plane waves:     198
 k-point  57 :   0.2727 0.0909 0.2727  plane waves:     203
 k-point  58 :   0.3636 0.0909 0.2727  plane waves:     206
 k-point  59 :   0.4545 0.0909 0.2727  plane waves:     210
 k-point  60 :   0.1818 0.1818 0.2727  plane waves:     203
 k-point  61 :   0.2727 0.1818 0.2727  plane waves:     206
 k-point  62 :   0.3636 0.1818 0.2727  plane waves:     208
 k-point  63 :   0.2727 0.2727 0.2727  plane waves:     208
 k-point  64 :   0.3636 0.2727 0.2727  plane waves:     207
 k-point  65 :   0.0000 0.0000 0.3636  plane waves:     203
 k-point  66 :   0.0909-0.0000 0.3636  plane waves:     207
 k-point  67 :   0.1818-0.0000 0.3636  plane waves:     196
 k-point  68 :   0.2727-0.0000 0.3636  plane waves:     204
 k-point  69 :   0.3636-0.0000 0.3636  plane waves:     204
 k-point  70 :   0.4545-0.0000 0.3636  plane waves:     200
 k-point  71 :   0.0909 0.0909 0.3636  plane waves:     198
 k-point  72 :   0.1818 0.0909 0.3636  plane waves:     200
 k-point  73 :   0.2727 0.0909 0.3636  plane waves:     203
 k-point  74 :   0.3636 0.0909 0.3636  plane waves:     205
 k-point  75 :   0.4545 0.0909 0.3636  plane waves:     202
 k-point  76 :   0.1818 0.1818 0.3636  plane waves:     203
 k-point  77 :   0.2727 0.1818 0.3636  plane waves:     207
 k-point  78 :   0.3636 0.1818 0.3636  plane waves:     208
 k-point  79 :   0.2727 0.2727 0.3636  plane waves:     211
 k-point  80 :   0.3636 0.2727 0.3636  plane waves:     209
 k-point  81 :   0.0000 0.0000 0.4545  plane waves:     216
 k-point  82 :   0.0909-0.0000 0.4545  plane waves:     206
 k-point  83 :   0.1818-0.0000 0.4545  plane waves:     198
 k-point  84 :   0.2727-0.0000 0.4545  plane waves:     206
 k-point  85 :   0.3636-0.0000 0.4545  plane waves:     206
 k-point  86 :   0.4545-0.0000 0.4545  plane waves:     201
 k-point  87 :   0.0909 0.0909 0.4545  plane waves:     198
 k-point  88 :   0.1818 0.0909 0.4545  plane waves:     199
 k-point  89 :   0.2727 0.0909 0.4545  plane waves:     202
 k-point  90 :   0.3636 0.0909 0.4545  plane waves:     203
 k-point  91 :   0.4545 0.0909 0.4545  plane waves:     202
 k-point  92 :   0.1818 0.1818 0.4545  plane waves:     206
 k-point  93 :   0.2727 0.1818 0.4545  plane waves:     207
 k-point  94 :   0.3636 0.1818 0.4545  plane waves:     209
 k-point  95 :   0.2727 0.2727 0.4545  plane waves:     209
 k-point  96 :   0.3636 0.2727 0.4545  plane waves:     212

 maximum number of plane-waves:       216
 maximum index in each direction: 
   IXMAX=    3   IYMAX=    3   IZMAX=    5
   IXMIN=   -3   IYMIN=   -3   IZMIN=   -6


 total amount of memory used by VASP MPI-rank0    49317. kBytes
=======================================================================

   base      :      30000. kBytes
   nonl-proj :       2992. kBytes
   grid      :        812. kBytes
   one-center:         31. kBytes
   wavefun   :      15482. kBytes
 
     INWAV:  cpu time    0.0000: real time    0.0000
 Broyden mixing: mesh for mixing (old mesh)
   NGX =  7   NGY =  7   NGZ = 11
  (NGX  = 20   NGY  = 20   NGZ  = 36)
  gives a total of    539 points

 initial charge density was supplied:
 charge density of overlapping atoms calculated
 number of electron      16.0000000 magnetization 
 keeping initial charge density in first step


--------------------------------------------------------------------------------------------------------


 Maximum index for augmentation-charges         3222 (set IRDMAX)


--------------------------------------------------------------------------------------------------------


 First call to EWALD:  gamma=   0.661
 Maximum number of real-space cells 3x 3x 2
 Maximum number of reciprocal cells 2x 2x 4

    FEWALD:  cpu time    0.0008: real time    0.0008


--------------------------------------- Iteration      1(   1)  ---------------------------------------


    POTLOK:  cpu time    0.0035: real time    0.0035
    SETDIJ:  cpu time    0.0022: real time    0.0022
     EDDAV:  cpu time    0.7799: real time    0.7993
       DOS:  cpu time    0.0058: real time    0.0058
    --------------------------------------------
      LOOP:  cpu time    0.7914: real time    0.8108

 eigenvalue-minimisations  :  9296
 total energy-change (2. order) : 0.5998328E+02  (-0.2557013E+03)
 number of electron      16.0000000 magnetization 
 augmentation part       16.0000000 magnetization 

 Free energy of the ion-electron system (eV)
  ---------------------------------------------------
  alpha Z        PSCENC =       143.41622339
  Ewald energy   TEWEN  =     -1249.69361233
  -Hartree energ DENC   =      -199.27823611
  -exchange      EXHF   =         0.00000000
  -V(xc)+E(xc)   XCENC  =         8.85349112
  PAW double counting   =      1109.69170683    -1125.09647265
  entropy T*S    EENTRO =        -0.00455002
  eigenvalues    EBANDS =       183.51981804
  atomic energy  EATOM  =      1188.57490811
  Solvation  Ediel_sol  =         0.00000000
  ---------------------------------------------------
  free energy    TOTEN  =        59.98327637 eV

  energy without entropy =       59.98782639  energy(sigma->0) =       59.98479305


--------------------------------------------------------------------------------------------------------




--------------------------------------- Iteration      1(   2)  ---------------------------------------


     EDDAV:  cpu time    0.6912: real time    0.6912
       DOS:  cpu time    0.0060: real time    0.0060
    --------------------------------------------
      LOOP:  cpu time    0.6971: real time    0.6972

 eigenvalue-minimisations  :  7936
 total energy-change (2. order) :-0.7466336E+02  (-0.6369114E+02)
 number of electron      16.0000000 magnetization 
 augmentation part       16.0000000 magnetization 

 Free energy of the ion-electron system (eV)
  ---------------------------------------------------
  alpha Z        PSCENC =       143.41622339
  Ewald energy   TEWEN  =     -1249.69361233
  -Hartree energ DENC   =      -199.27823611
  -exchange      EXHF   =         0.00000000
  -V(xc)+E(xc)   XCENC  =         8.85349112
  PAW double counting   =      1109.69170683    -1125.09647265
  entropy T*S    EENTRO =        -0.00129812
  eigenvalues    EBANDS =       108.85320995
  atomic energy  EATOM  =      1188.57490811
  Solvation  Ediel_sol  =         0.00000000
  ---------------------------------------------------
  free energy    TOTEN  =       -14.68007981 eV

  energy without entropy =      -14.67878169  energy(sigma->0) =      -14.67964710


--------------------------------------------------------------------------------------------------------




--------------------------------------- Iteration      1(   3)  ---------------------------------------


     EDDAV:  cpu time    0.7890: real time    0.7890
       DOS:  cpu time    0.0064: real time    0.0064
    --------------------------------------------
      LOOP:  cpu time    0.7954: real time    0.7954

 eigenvalue-minimisations  :  9528
 total energy-change (2. order) :-0.4306223E+01  (-0.4111429E+01)
 number of electron      16.0000000 magnetization 
 augmentation part       16.0000000 magnetization 

 Free energy of the ion-electron system (eV)
  ---------------------------------------------------
  alpha Z        PSCENC =       143.41622339
  Ewald energy   TEWEN  =     -1249.69361233
  -Hartree energ DENC   =      -199.27823611
  -exchange      EXHF   =         0.00000000
  -V(xc)+E(xc)   XCENC  =         8.85349112
  PAW double counting   =      1109.69170683    -1125.09647265
  entropy T*S    EENTRO =         0.00056987
  eigenvalues    EBANDS =       104.54511916
  atomic energy  EATOM  =      1188.57490811
  Solvation  Ediel_sol  =         0.00000000
  ---------------------------------------------------
  free energy    TOTEN  =       -18.98630262 eV

  energy without entropy =      -18.98687248  energy(sigma->0) =      -18.98649257


--------------------------------------------------------------------------------------------------------




--------------------------------------- Iteration      1(   4)  ---------------------------------------


     EDDAV:  cpu time    0.7491: real time    0.7491
       DOS:  cpu time    0.0064: real time    0.0064
    --------------------------------------------
      LOOP:  cpu time    0.7555: real time    0.7555

 eigenvalue-minimisations  :  9088
 total energy-change (2. order) :-0.1742196E-01  (-0.1741224E-01)
 number of electron      16.0000000 magnetization 
 augmentation part       16.0000000 magnetization 

 Free energy of the ion-electron system (eV)
  ---------------------------------------------------
  alpha Z        PSCENC =       143.41622339
  Ewald energy   TEWEN  =     -1249.69361233
  -Hartree energ DENC   =      -199.27823611
  -exchange      EXHF   =         0.00000000
  -V(xc)+E(xc)   XCENC  =         8.85349112
  PAW double counting   =      1109.69170683    -1125.09647265
  entropy T*S    EENTRO =         0.00060903
  eigenvalues    EBANDS =       104.52765803
  atomic energy  EATOM  =      1188.57490811
  Solvation  Ediel_sol  =         0.00000000
  ---------------------------------------------------
  free energy    TOTEN  =       -19.00372458 eV

  energy without entropy =      -19.00433361  energy(sigma->0) =      -19.00392759


--------------------------------------------------------------------------------------------------------




--------------------------------------- Iteration      1(   5)  ---------------------------------------


     EDDAV:  cpu time    0.7644: real time    0.7644
       DOS:  cpu time    0.0065: real time    0.0065
    CHARGE:  cpu time    0.0198: real time    0.0198
    MIXING:  cpu time    0.0001: real time    0.0001
    --------------------------------------------
      LOOP:  cpu time    0.7909: real time    0.7909

 eigenvalue-minimisations  :  9232
 total energy-change (2. order) :-0.1652165E-04  (-0.1652227E-04)
 number of electron      15.9999947 magnetization 
 augmentation part        7.1211753 magnetization 

 Broyden mixing:
  rms(total) = 0.17985E+01    rms(broyden)= 0.17985E+01
  rms(prec ) = 0.29385E+01
  weight for this iteration     100.00

 Free energy of the ion-electron system (eV)
  ---------------------------------------------------
  alpha Z        PSCENC =       143.41622339
  Ewald energy   TEWEN  =     -1249.69361233
  -Hartree energ DENC   =      -199.27823611
  -exchange      EXHF   =         0.00000000
  -V(xc)+E(xc)   XCENC  =         8.85349112
  PAW double counting   =      1109.69170683    -1125.09647265
  entropy T*S    EENTRO =         0.00060907
  eigenvalues    EBANDS =       104.52764147
  atomic energy  EATOM  =      1188.57490811
  Solvation  Ediel_sol  =         0.00000000
  ---------------------------------------------------
  free energy    TOTEN  =       -19.00374110 eV

  energy without entropy =      -19.00435017  energy(sigma->0) =      -19.00394413


--------------------------------------------------------------------------------------------------------




--------------------------------------- Iteration      1(   6)  ---------------------------------------


    POTLOK:  cpu time    0.0034: real time    0.0034
    SETDIJ:  cpu time    0.0021: real time    0.0021
     EDDAV:  cpu time    0.9113: real time    0.9113
       DOS:  cpu time    0.0067: real time    0.0067
    CHARGE:  cpu time    0.0217: real time    0.0217
    MIXING:  cpu time    0.0002: real time    0.0002
    --------------------------------------------
      LOOP:  cpu time    0.9455: real time    0.9455

 eigenvalue-minimisations  : 11216
 total energy-change (2. order) : 0.2783964E+01  (-0.1614759E+00)
 number of electron      15.9999934 magnetization 
 augmentation part        8.4134438 magnetization 

 Broyden mixing:
  rms(total) = 0.18350E+00    rms(broyden)= 0.18339E+00
  rms(prec ) = 0.30184E+00
  weight for this iteration     100.00

 eigenvalues of (default mixing * dielectric matrix)
  average eigenvalue GAMMA=   0.9656
  0.9656

 Free energy of the ion-electron system (eV)
  ---------------------------------------------------
  alpha Z        PSCENC =       143.41622339
  Ewald energy   TEWEN  =     -1249.69361233
  -Hartree energ DENC   =      -166.47837562
  -exchange      EXHF   =         0.00000000
  -V(xc)+E(xc)   XCENC  =         7.24687150
  PAW double counting   =      1288.70555780    -1300.19975634
  entropy T*S    EENTRO =         0.00191564
  eigenvalues    EBANDS =        72.20649070
  atomic energy  EATOM  =      1188.57490811
  Solvation  Ediel_sol  =         0.00000000
  ---------------------------------------------------
  free energy    TOTEN  =       -16.21977715 eV

  energy without entropy =      -16.22169279  energy(sigma->0) =      -16.22041569


--------------------------------------------------------------------------------------------------------




--------------------------------------- Iteration      1(   7)  ---------------------------------------


    POTLOK:  cpu time    0.0034: real time    0.0034
    SETDIJ:  cpu time    0.0021: real time    0.0021
     EDDAV:  cpu time    0.8162: real time    0.8162
       DOS:  cpu time    0.0064: real time    0.0064
    CHARGE:  cpu time    0.0194: real time    0.0194
    MIXING:  cpu time    0.0002: real time    0.0002
    --------------------------------------------
      LOOP:  cpu time    0.8476: real time    0.8477

 eigenvalue-minimisations  : 10048
 total energy-change (2. order) : 0.1532474E+00  (-0.9094645E-02)
 number of electron      15.9999936 magnetization 
 augmentation part        8.1772865 magnetization 

 Broyden mixing:
  rms(total) = 0.12059E+00    rms(broyden)= 0.12059E+00
  rms(prec ) = 0.20518E+00
  weight for this iteration     100.00

 eigenvalues of (default mixing * dielectric matrix)
  average eigenvalue GAMMA=   1.0423
  1.3089  0.7757

 Free energy of the ion-electron system (eV)
  ---------------------------------------------------
  alpha Z        PSCENC =       143.41622339
  Ewald energy   TEWEN  =     -1249.69361233
  -Hartree energ DENC   =      -169.36480515
  -exchange      EXHF   =         0.00000000
  -V(xc)+E(xc)   XCENC  =         7.41761806
  PAW double counting   =      1378.51596090    -1393.47254718
  entropy T*S    EENTRO =         0.00184772
  eigenvalues    EBANDS =        78.53787669
  atomic energy  EATOM  =      1188.57490811
  Solvation  Ediel_sol  =         0.00000000
  ---------------------------------------------------
  free energy    TOTEN  =       -16.06652979 eV

  energy without entropy =      -16.06837751  energy(sigma->0) =      -16.06714570


--------------------------------------------------------------------------------------------------------




--------------------------------------- Iteration      1(   8)  ---------------------------------------


    POTLOK:  cpu time    0.0034: real time    0.0034
    SETDIJ:  cpu time    0.0021: real time    0.0021
     EDDAV:  cpu time    0.8204: real time    0.8205
       DOS:  cpu time    0.0065: real time    0.0065
    CHARGE:  cpu time    0.0209: real time    0.0209
    MIXING:  cpu time    0.0002: real time    0.0002
    --------------------------------------------
      LOOP:  cpu time    0.8535: real time    0.8535

 eigenvalue-minimisations  : 10032
 total energy-change (2. order) : 0.2993560E-01  (-0.2705845E-03)
 number of electron      15.9999935 magnetization 
 augmentation part        8.2036978 magnetization 

 Broyden mixing:
  rms(total) = 0.53209E-01    rms(broyden)= 0.53208E-01
  rms(prec ) = 0.87951E-01
  weight for this iteration     100.00

 eigenvalues of (default mixing * dielectric matrix)
  average eigenvalue GAMMA=   1.4880
  1.0459  0.8180  2.6001

 Free energy of the ion-electron system (eV)
  ---------------------------------------------------
  alpha Z        PSCENC =       143.41622339
  Ewald energy   TEWEN  =     -1249.69361233
  -Hartree energ DENC   =      -167.19912874
  -exchange      EXHF   =         0.00000000
  -V(xc)+E(xc)   XCENC  =         7.33137430
  PAW double counting   =      1456.00056316    -1472.49658442
  entropy T*S    EENTRO =         0.00187381
  eigenvalues    EBANDS =        78.02778852
  atomic energy  EATOM  =      1188.57490811
  Solvation  Ediel_sol  =         0.00000000
  ---------------------------------------------------
  free energy    TOTEN  =       -16.03659419 eV

  energy without entropy =      -16.03846800  energy(sigma->0) =      -16.03721879


--------------------------------------------------------------------------------------------------------




--------------------------------------- Iteration      1(   9)  ---------------------------------------


    POTLOK:  cpu time    0.0033: real time    0.0033
    SETDIJ:  cpu time    0.0021: real time    0.0021
     EDDAV:  cpu time    0.8754: real time    0.8755
       DOS:  cpu time    0.0065: real time    0.0065
    CHARGE:  cpu time    0.0204: real time    0.0204
    MIXING:  cpu time    0.0002: real time    0.0002
    --------------------------------------------
      LOOP:  cpu time    0.9080: real time    0.9081

 eigenvalue-minimisations  : 10840
 total energy-change (2. order) : 0.9675601E-02  (-0.9331851E-04)
 number of electron      15.9999935 magnetization 
 augmentation part        8.2163610 magnetization 

 Broyden mixing:
  rms(total) = 0.57200E-02    rms(broyden)= 0.57186E-02
  rms(prec ) = 0.67574E-02
  weight for this iteration     100.00

 eigenvalues of (default mixing * dielectric matrix)
  average eigenvalue GAMMA=   1.5642
  2.6285  0.8193  0.9939  1.8152

 Free energy of the ion-electron system (eV)
  ---------------------------------------------------
  alpha Z        PSCENC =       143.41622339
  Ewald energy   TEWEN  =     -1249.69361233
  -Hartree energ DENC   =      -165.30228259
  -exchange      EXHF   =         0.00000000
  -V(xc)+E(xc)   XCENC  =         7.26081910
  PAW double counting   =      1542.22044850    -1560.38053530
  entropy T*S    EENTRO =         0.00186869
  eigenvalues    EBANDS =        77.87524384
  atomic energy  EATOM  =      1188.57490811
  Solvation  Ediel_sol  =         0.00000000
  ---------------------------------------------------
  free energy    TOTEN  =       -16.02691859 eV

  energy without entropy =      -16.02878728  energy(sigma->0) =      -16.02754148


--------------------------------------------------------------------------------------------------------




--------------------------------------- Iteration      1(  10)  ---------------------------------------


    POTLOK:  cpu time    0.0033: real time    0.0033
    SETDIJ:  cpu time    0.0021: real time    0.0021
     EDDAV:  cpu time    0.7225: real time    0.7225
       DOS:  cpu time    0.0066: real time    0.0066
    CHARGE:  cpu time    0.0196: real time    0.0196
    MIXING:  cpu time    0.0002: real time    0.0002
    --------------------------------------------
      LOOP:  cpu time    0.7544: real time    0.7544

 eigenvalue-minimisations  :  8680
 total energy-change (2. order) :-0.2408997E-04  (-0.2971179E-05)
 number of electron      15.9999935 magnetization 
 augmentation part        8.2164787 magnetization 

 Broyden mixing:
  rms(total) = 0.23665E-02    rms(broyden)= 0.23653E-02
  rms(prec ) = 0.32738E-02
  weight for this iteration     100.00

 eigenvalues of (default mixing * dielectric matrix)
  average eigenvalue GAMMA=   1.6309
  2.6065  2.4507  0.8187  1.0047  1.2740

 Free energy of the ion-electron system (eV)
  ---------------------------------------------------
  alpha Z        PSCENC =       143.41622339
  Ewald energy   TEWEN  =     -1249.69361233
  -Hartree energ DENC   =      -165.34388564
  -exchange      EXHF   =         0.00000000
  -V(xc)+E(xc)   XCENC  =         7.26359754
  PAW double counting   =      1544.41444186    -1562.52492706
  entropy T*S    EENTRO =         0.00186422
  eigenvalues    EBANDS =        77.86444722
  atomic energy  EATOM  =      1188.57490811
  Solvation  Ediel_sol  =         0.00000000
  ---------------------------------------------------
  free energy    TOTEN  =       -16.02694268 eV

  energy without entropy =      -16.02880689  energy(sigma->0) =      -16.02756408


--------------------------------------------------------------------------------------------------------




--------------------------------------- Iteration      1(  11)  ---------------------------------------


    POTLOK:  cpu time    0.0034: real time    0.0034
    SETDIJ:  cpu time    0.0021: real time    0.0021
     EDDAV:  cpu time    0.7388: real time    0.7388
       DOS:  cpu time    0.0065: real time    0.0065
    CHARGE:  cpu time    0.0193: real time    0.0203
    MIXING:  cpu time    0.0003: real time    0.0003
    --------------------------------------------
      LOOP:  cpu time    0.7704: real time    0.7714

 eigenvalue-minimisations  :  8712
 total energy-change (2. order) : 0.1030115E-04  (-0.2841101E-07)
 number of electron      15.9999935 magnetization 
 augmentation part        8.2161601 magnetization 

 Broyden mixing:
  rms(total) = 0.19502E-03    rms(broyden)= 0.19488E-03
  rms(prec ) = 0.28742E-03
  weight for this iteration     100.00

 eigenvalues of (default mixing * dielectric matrix)
  average eigenvalue GAMMA=   1.5608
  2.5780  2.5780  0.8184  1.0031  1.0031  1.3840

 Free energy of the ion-electron system (eV)
  ---------------------------------------------------
  alpha Z        PSCENC =       143.41622339
  Ewald energy   TEWEN  =     -1249.69361233
  -Hartree energ DENC   =      -165.40337373
  -exchange      EXHF   =         0.00000000
  -V(xc)+E(xc)   XCENC  =         7.26642814
  PAW double counting   =      1543.99909423    -1562.05413780
  entropy T*S    EENTRO =         0.00186423
  eigenvalues    EBANDS =        77.86567338
  atomic energy  EATOM  =      1188.57490811
  Solvation  Ediel_sol  =         0.00000000
  ---------------------------------------------------
  free energy    TOTEN  =       -16.02693238 eV

  energy without entropy =      -16.02879661  energy(sigma->0) =      -16.02755379


--------------------------------------------------------------------------------------------------------




--------------------------------------- Iteration      1(  12)  ---------------------------------------


    POTLOK:  cpu time    0.0033: real time    0.0033
    SETDIJ:  cpu time    0.0021: real time    0.0021
     EDDAV:  cpu time    0.5759: real time    0.5760
       DOS:  cpu time    0.0067: real time    0.0067
    CHARGE:  cpu time    0.0193: real time    0.0193
    MIXING:  cpu time    0.0003: real time    0.0003
    --------------------------------------------
      LOOP:  cpu time    0.6076: real time    0.6077

 eigenvalue-minimisations  :  6080
 total energy-change (2. order) : 0.1229938E-05  (-0.7773368E-08)
 number of electron      15.9999935 magnetization 
 augmentation part        8.2161518 magnetization 

 Broyden mixing:
  rms(total) = 0.10540E-03    rms(broyden)= 0.10531E-03
  rms(prec ) = 0.11514E-03
  weight for this iteration     100.00

 eigenvalues of (default mixing * dielectric matrix)
  average eigenvalue GAMMA=   1.5989
  2.5740  2.5124  0.8184  0.9903  1.0118  1.9395  1.3462

 Free energy of the ion-electron system (eV)
  ---------------------------------------------------
  alpha Z        PSCENC =       143.41622339
  Ewald energy   TEWEN  =     -1249.69361233
  -Hartree energ DENC   =      -165.41116751
  -exchange      EXHF   =         0.00000000
  -V(xc)+E(xc)   XCENC  =         7.26678018
  PAW double counting   =      1543.95460497    -1562.00169234
  entropy T*S    EENTRO =         0.00186448
  eigenvalues    EBANDS =        77.86515990
  atomic energy  EATOM  =      1188.57490811
  Solvation  Ediel_sol  =         0.00000000
  ---------------------------------------------------
  free energy    TOTEN  =       -16.02693115 eV

  energy without entropy =      -16.02879562  energy(sigma->0) =      -16.02755264


--------------------------------------------------------------------------------------------------------




--------------------------------------- Iteration      1(  13)  ---------------------------------------


    POTLOK:  cpu time    0.0034: real time    0.0034
    SETDIJ:  cpu time    0.0021: real time    0.0021
     EDDAV:  cpu time    0.5465: real time    0.5465
       DOS:  cpu time    0.0066: real time    0.0066
    --------------------------------------------
      LOOP:  cpu time    0.5586: real time    0.5586

 eigenvalue-minimisations  :  5448
 total energy-change (2. order) :-0.3251439E-06  (-0.7691142E-09)
 number of electron      15.9999935 magnetization 
 augmentation part        8.2161518 magnetization 

 Free energy of the ion-electron system (eV)
  ---------------------------------------------------
  alpha Z        PSCENC =       143.41622339
  Ewald energy   TEWEN  =     -1249.69361233
  -Hartree energ DENC   =      -165.40983433
  -exchange      EXHF   =         0.00000000
  -V(xc)+E(xc)   XCENC  =         7.26671674
  PAW double counting   =      1544.02044343    -1562.06909232
  entropy T*S    EENTRO =         0.00186447
  eigenvalues    EBANDS =        77.86545136
  atomic energy  EATOM  =      1188.57490811
  Solvation  Ediel_sol  =         0.00000000
  ---------------------------------------------------
  free energy    TOTEN  =       -16.02693147 eV

  energy without entropy =      -16.02879594  energy(sigma->0) =      -16.02755296


--------------------------------------------------------------------------------------------------------




 average (electrostatic) potential at core
  the test charge radii are     1.0103
  (the norm of the test charge is              1.0000)
       1 -42.0431       2 -42.0431
 
 
 
 E-fermi :   7.5390     XC(G=0): -14.1184     alpha+bet :-16.0823

 Fermi energy:         7.5390290346

 k-point     1 :       0.0000    0.0000    0.0000
  band No.  band energies     occupation 
      1      -1.6745      2.00000
      2       2.2269      2.00000
      3       5.1720      2.00000
      4       5.8394      2.00000
      5       5.8395      2.00000
      6       6.1749      2.00000
      7       6.1750      2.00000
      8       6.8017      2.00000
      9       7.1957      2.03568
     10       7.1958      2.03569
     11       8.3516     -0.00000
     12       8.3517     -0.00000
     13      15.3738      0.00000
     14      31.4388      0.00000
     15      31.6471      0.00000
     16      34.5642      0.00000
     17      37.2367      0.00000
     18      37.2368      0.00000
     19      38.0123      0.00000
     20      38.0124      0.00000
     21      38.8278      0.00000
     22      40.6962      0.00000
     23      40.6963      0.00000
     24      41.7455      0.00000
     25      44.5651      0.00000
     26      44.5651      0.00000
     27      45.5025      0.00000
     28      48.6413      0.00000
     29      48.6417      0.00000
     30      50.5730      0.00000
     31      50.5732      0.00000
     32      53.1803      0.00000
     33      60.9666      0.00000
     34      62.9709      0.00000
     35      62.9718      0.00000
     36      63.0254      0.00000
     37      64.1506      0.00000
     38      65.6001      0.00000
     39      65.6012      0.00000
     40      67.1802      0.00000

 k-point     2 :       0.0909   -0.0000    0.0000
  band No.  band energies     occupation 
      1      -1.3295      2.00000
      2       2.4862      2.00000
      3       5.1801      2.00000
      4       5.7768      2.00000
      5       5.9038      2.00000
      6       6.0473      2.00000
      7       6.0537      2.00000
      8       6.3695      2.00000
      9       7.0355      2.00214
     10       7.0748      2.00496
     11       8.3881     -0.00000
     12       9.5207     -0.00000
     13      15.3949      0.00000
     14      30.2684      0.00000
     15      32.0050      0.00000
     16      32.9801      0.00000
     17      34.3723      0.00000
     18      36.5586      0.00000
     19      36.6035      0.00000
     20      38.6845      0.00000
     21      40.1314      0.00000
     22      41.0309      0.00000
     23      41.2037      0.00000
     24      41.7153      0.00000
     25      45.7505      0.00000
     26      46.0076      0.00000
     27      46.0947      0.00000
     28      46.3445      0.00000
     29      49.8122      0.00000
     30      51.9726      0.00000
     31      53.0722      0.00000
     32      55.0477      0.00000
     33      59.9679      0.00000
     34      61.9241      0.00000
     35      62.1288      0.00000
     36      62.6644      0.00000
     37      62.7731      0.00000
     38      66.3865      0.00000
     39      67.1481      0.00000
     40      67.7292      0.00000

 k-point     3 :       0.1818   -0.0000    0.0000
  band No.  band energies     occupation 
      1      -0.3568      2.00000
      2       3.0924      2.00000
      3       4.7677      2.00000
      4       4.9770      2.00000
      5       5.5854      2.00000
      6       6.1938      2.00000
      7       6.6244      2.00000
      8       6.6514      2.00000
      9       6.7871      2.00000
     10       6.9010      2.00006
     11       8.4451     -0.00000
     12      11.4281     -0.00000
     13      15.4878      0.00000
     14      26.5597      0.00000
     15      31.4317      0.00000
     16      31.7007      0.00000
     17      32.0267      0.00000
     18      33.0349      0.00000
     19      37.2536      0.00000
     20      38.1887      0.00000
     21      38.7815      0.00000
     22      39.2427      0.00000
     23      42.1332      0.00000
     24      43.1429      0.00000
     25      45.8969      0.00000
     26      46.9095      0.00000
     27      48.4226      0.00000
     28      50.7176      0.00000
     29      52.8174      0.00000
     30      55.1636      0.00000
     31      55.8019      0.00000
     32      58.4013      0.00000
     33      58.4267      0.00000
     34      59.3297      0.00000
     35      60.2121      0.00000
     36      61.6025      0.00000
     37      63.6182      0.00000
     38      67.0113      0.00000
     39      67.3465      0.00000
     40      68.1803      0.00000

 k-point     4 :       0.2727   -0.0000    0.0000
  band No.  band energies     occupation 
      1       1.0108      2.00000
      2       3.3687      2.00000
      3       3.8824      2.00000
      4       4.9327      2.00000
      5       5.4038      2.00000
      6       6.1735      2.00000
      7       6.4622      2.00000
      8       6.9987      2.00090
      9       7.4457      1.70243
     10       7.6483      0.21104
     11       8.4796     -0.00000
     12      13.5772      0.00000
     13      15.7012      0.00000
     14      22.5135      0.00000
     15      28.3735      0.00000
     16      28.9276      0.00000
     17      30.1072      0.00000
     18      32.9385      0.00000
     19      35.4561      0.00000
     20      38.5769      0.00000
     21      38.5961      0.00000
     22      39.1344      0.00000
     23      39.7041      0.00000
     24      43.3874      0.00000
     25      49.4885      0.00000
     26      51.0127      0.00000
     27      51.9914      0.00000
     28      53.3349      0.00000
     29      54.4039      0.00000
     30      55.5730      0.00000
     31      57.1029      0.00000
     32      58.6733      0.00000
     33      59.8687      0.00000
     34      60.1757      0.00000
     35      61.1701      0.00000
     36      63.1668      0.00000
     37      64.2800      0.00000
     38      66.8894      0.00000
     39      68.0388      0.00000
     40      68.2349      0.00000

 k-point     5 :       0.3636   -0.0000    0.0000
  band No.  band energies     occupation 
      1       2.2019      2.00000
      2       3.0815      2.00000
      3       3.2914      2.00000
      4       5.1294      2.00000
      5       5.7478      2.00000
      6       5.8293      2.00000
      7       6.1930      2.00000
      8       8.2743     -0.00000
      9       8.3130     -0.00000
     10       8.4018     -0.00000
     11       8.4857     -0.00000
     12      15.5689      0.00000
     13      15.8662      0.00000
     14      19.5846      0.00000
     15      25.0387      0.00000
     16      27.0062      0.00000
     17      27.2804      0.00000
     18      32.0678      0.00000
     19      34.3536      0.00000
     20      37.6014      0.00000
     21      38.1881      0.00000
     22      40.0196      0.00000
     23      40.6189      0.00000
     24      43.6109      0.00000
     25      51.0877      0.00000
     26      52.3650      0.00000
     27      53.0102      0.00000
     28      56.2132      0.00000
     29      56.3593      0.00000
     30      56.8353      0.00000
     31      58.9663      0.00000
     32      60.0064      0.00000
     33      60.5925      0.00000
     34      61.1594      0.00000
     35      62.9608      0.00000
     36      64.5506      0.00000
     37      66.5191      0.00000
     38      67.2349      0.00000
     39      67.9143      0.00000
     40      68.3189      0.00000

 k-point     6 :       0.4545   -0.0000    0.0000
  band No.  band energies     occupation 
      1       2.6232      2.00000
      2       2.8561      2.00000
      3       2.9983      2.00000
      4       5.5008      2.00000
      5       5.7101      2.00000
      6       6.0421      2.00000
      7       6.0839      2.00000
      8       8.4831     -0.00000
      9       8.7875     -0.00000
     10       8.9110     -0.00000
     11      10.0837     -0.00000
     12      13.6612      0.00000
     13      18.0257      0.00000
     14      19.5575      0.00000
     15      22.3786      0.00000
     16      24.5636      0.00000
     17      25.9307      0.00000
     18      31.4323      0.00000
     19      34.0171      0.00000
     20      36.4289      0.00000
     21      37.9779      0.00000
     22      40.9447      0.00000
     23      42.9133      0.00000
     24      43.4437      0.00000
     25      47.7038      0.00000
     26      52.9776      0.00000
     27      54.2855      0.00000
     28      58.3392      0.00000
     29      58.4243      0.00000
     30      59.3828      0.00000
     31      60.5901      0.00000
     32      61.5385      0.00000
     33      61.5785      0.00000
     34      63.4154      0.00000
     35      64.0004      0.00000
     36      65.4080      0.00000
     37      66.6766      0.00000
     38      66.8778      0.00000
     39      68.2891      0.00000
     40      68.8203      0.00000

 k-point     7 :       0.0909    0.0909    0.0000
  band No.  band energies     occupation 
      1      -0.6676      2.00000
      2       2.9394      2.00000
      3       5.0148      2.00000
      4       5.0669      2.00000
      5       5.8203      2.00000
      6       5.8560      2.00000
      7       6.4695      2.00000
      8       6.6139      2.00000
      9       6.7819      2.00000
     10       7.0358      2.00215
     11       8.3990     -0.00000
     12      10.8975     -0.00000
     13      15.4558      0.00000
     14      28.2740      0.00000
     15      29.6931      0.00000
     16      32.5091      0.00000
     17      33.7025      0.00000
     18      35.3125      0.00000
     19      35.5680      0.00000
     20      37.2227      0.00000
     21      38.3007      0.00000
     22      42.9003      0.00000
     23      42.9070      0.00000
     24      43.8819      0.00000
     25      44.6683      0.00000
     26      44.9868      0.00000
     27      45.1962      0.00000
     28      51.2328      0.00000
     29      53.4127      0.00000
     30      53.7934      0.00000
     31      53.9333      0.00000
     32      57.6769      0.00000
     33      58.8358      0.00000
     34      60.0535      0.00000
     35      60.8764      0.00000
     36      61.6619      0.00000
     37      62.9063      0.00000
     38      67.0404      0.00000
     39      67.5217      0.00000
     40      68.6769      0.00000

 k-point     8 :       0.1818    0.0909    0.0000
  band No.  band energies     occupation 
      1       0.5308      2.00000
      2       3.5109      2.00000
      3       4.2044      2.00000
      4       4.6897      2.00000
      5       5.5055      2.00000
      6       6.1485      2.00000
      7       6.3246      2.00000
      8       6.7640      2.00000
      9       7.2257      2.04921
     10       7.5544      0.87049
     11       8.3986     -0.00000
     12      12.8247     -0.00000
     13      15.6566      0.00000
     14      24.5806      0.00000
     15      27.2533      0.00000
     16      30.1929      0.00000
     17      32.3999      0.00000
     18      32.9809      0.00000
     19      36.1863      0.00000
     20      36.4361      0.00000
     21      37.5045      0.00000
     22      42.1228      0.00000
     23      42.2989      0.00000
     24      43.5403      0.00000
     25      46.6112      0.00000
     26      47.4800      0.00000
     27      49.5221      0.00000
     28      53.6692      0.00000
     29      55.7986      0.00000
     30      56.0716      0.00000
     31      56.6003      0.00000
     32      58.6555      0.00000
     33      59.2664      0.00000
     34      59.8152      0.00000
     35      60.6579      0.00000
     36      61.1369      0.00000
     37      63.6206      0.00000
     38      67.0196      0.00000
     39      68.0321      0.00000
     40      68.9388      0.00000

 k-point     9 :       0.2727    0.0909    0.0000
  band No.  band energies     occupation 
      1       1.9079      2.00000
      2       3.4319      2.00000
      3       3.5543      2.00000
      4       4.7816      2.00000
      5       5.5816      2.00000
      6       5.7678      2.00000
      7       6.3725      2.00000
      8       7.1508      2.01924
      9       8.0562     -0.00156
     10       8.3897     -0.00000
     11       8.5602     -0.00000
     12      15.0169      0.00000
     13      15.9822      0.00000
     14      20.8412      0.00000
     15      25.4944      0.00000
     16      26.7827      0.00000
     17      29.6429      0.00000
     18      31.2515      0.00000
     19      35.4553      0.00000
     20      36.6631      0.00000
     21      37.8951      0.00000
     22      41.6014      0.00000
     23      41.8208      0.00000
     24      44.6991      0.00000
     25      48.6378      0.00000
     26      51.3037      0.00000
     27      52.7430      0.00000
     28      53.2240      0.00000
     29      54.8332      0.00000
     30      57.2414      0.00000
     31      58.2860      0.00000
     32      60.0310      0.00000
     33      60.9121      0.00000
     34      60.9836      0.00000
     35      62.3511      0.00000
     36      64.0376      0.00000
     37      66.2904      0.00000
     38      66.8500      0.00000
     39      67.3268      0.00000
     40      68.9959      0.00000

 k-point    10 :       0.3636    0.0909    0.0000
  band No.  band energies     occupation 
      1       2.7314      2.00000
      2       3.1102      2.00000
      3       3.1635      2.00000
      4       5.2284      2.00000
      5       5.5357      2.00000
      6       5.9761      2.00000
[...]
     18      28.3065      0.00000
     19      33.6911      0.00000
     20      34.4575      0.00000
     21      37.9832      0.00000
     22      38.5531      0.00000
     23      43.5801      0.00000
     24      44.7038      0.00000
     25      50.5192      0.00000
     26      52.2987      0.00000
     27      54.4878      0.00000
     28      55.3733      0.00000
     29      57.7035      0.00000
     30      59.3805      0.00000
     31      60.8504      0.00000
     32      60.9752      0.00000
     33      63.3252      0.00000
     34      63.4325      0.00000
     35      64.3459      0.00000
     36      64.7502      0.00000
     37      65.8692      0.00000
     38      66.5468      0.00000
     39      68.7649      0.00000
     40      69.2899      0.00000

 k-point    91 :       0.4545    0.0909    0.4545
  band No.  band energies     occupation 
      1       2.5027      2.00000
      2       2.6547      2.00000
      3       3.9373      2.00000
      4       4.0348      2.00000
      5       6.4097      2.00000
      6       6.8369      2.00001
      7       7.5329      1.05169
      8       7.8561     -0.04750
      9       8.5386     -0.00000
     10       8.5635     -0.00000
     11      10.9964     -0.00000
     12      11.5116     -0.00000
     13      17.7068      0.00000
     14      17.7491      0.00000
     15      26.0757      0.00000
     16      26.8003      0.00000
     17      27.8105      0.00000
     18      28.2928      0.00000
     19      33.3580      0.00000
     20      33.6236      0.00000
     21      37.3562      0.00000
     22      37.4754      0.00000
     23      43.6830      0.00000
     24      44.8248      0.00000
     25      50.6875      0.00000
     26      52.4752      0.00000
     27      57.2246      0.00000
     28      58.4255      0.00000
     29      58.8767      0.00000
     30      59.3166      0.00000
     31      59.4933      0.00000
     32      60.0230      0.00000
     33      63.6428      0.00000
     34      64.1112      0.00000
     35      65.3279      0.00000
     36      65.8253      0.00000
     37      66.5767      0.00000
     38      66.7270      0.00000
     39      69.8543      0.00000
     40      69.9972      0.00000

 k-point    92 :       0.1818    0.1818    0.4545
  band No.  band energies     occupation 
      1       2.6048      2.00000
      2       2.8702      2.00000
      3       4.5582      2.00000
      4       4.6127      2.00000
      5       5.0897      2.00000
      6       5.1409      2.00000
      7       6.7838      2.00000
      8       7.0374      2.00223
      9       8.3086     -0.00000
     10       8.4551     -0.00000
     11       8.9750     -0.00000
     12       9.5299     -0.00000
     13      24.0117      0.00000
     14      24.0415      0.00000
     15      24.6186      0.00000
     16      25.6133      0.00000
     17      26.1025      0.00000
     18      27.2655      0.00000
     19      37.7569      0.00000
     20      38.8668      0.00000
     21      39.6094      0.00000
     22      40.7647      0.00000
     23      42.4429      0.00000
     24      42.5885      0.00000
     25      48.8991      0.00000
     26      49.3520      0.00000
     27      53.0162      0.00000
     28      53.9098      0.00000
     29      55.6960      0.00000
     30      56.7870      0.00000
     31      58.4499      0.00000
     32      58.9369      0.00000
     33      60.5490      0.00000
     34      60.6585      0.00000
     35      62.6785      0.00000
     36      62.6876      0.00000
     37      65.5637      0.00000
     38      67.2015      0.00000
     39      67.8025      0.00000
     40      68.2843      0.00000

 k-point    93 :       0.2727    0.1818    0.4545
  band No.  band energies     occupation 
      1       2.9593      2.00000
      2       3.0676      2.00000
      3       4.3416      2.00000
      4       4.5478      2.00000
      5       5.4306      2.00000
      6       5.5913      2.00000
      7       6.6898      2.00000
      8       6.9387      2.00019
      9       8.4183     -0.00000
     10       8.6920     -0.00000
     11      10.5519     -0.00000
     12      11.0897     -0.00000
     13      20.7830      0.00000
     14      21.3624      0.00000
     15      23.5934      0.00000
     16      24.3438      0.00000
     17      26.5000      0.00000
     18      28.2541      0.00000
     19      35.5309      0.00000
     20      37.1144      0.00000
     21      38.3039      0.00000
     22      39.8223      0.00000
     23      43.1917      0.00000
     24      43.6864      0.00000
     25      50.3601      0.00000
     26      50.8813      0.00000
     27      54.1847      0.00000
     28      56.0045      0.00000
     29      57.7965      0.00000
     30      59.4900      0.00000
     31      60.3539      0.00000
     32      60.8655      0.00000
     33      61.9357      0.00000
     34      61.9516      0.00000
     35      63.1394      0.00000
     36      63.5275      0.00000
     37      65.5085      0.00000
     38      66.9719      0.00000
     39      68.4168      0.00000
     40      68.7595      0.00000

 k-point    94 :       0.3636    0.1818    0.4545
  band No.  band energies     occupation 
      1       2.9851      2.00000
      2       3.1440      2.00000
      3       4.2227      2.00000
      4       4.4208      2.00000
      5       5.5585      2.00000
      6       5.9017      2.00000
      7       7.0384      2.00228
      8       7.1618      2.02270
      9       8.3883     -0.00000
     10       8.5700     -0.00000
     11      12.3217     -0.00000
     12      12.7699     -0.00000
     13      18.1449      0.00000
     14      18.5226      0.00000
     15      22.9616      0.00000
     16      23.7171      0.00000
     17      28.1089      0.00000
     18      29.2437      0.00000
     19      33.9086      0.00000
     20      34.9917      0.00000
     21      37.2960      0.00000
     22      38.8492      0.00000
     23      43.9304      0.00000
     24      44.3173      0.00000
     25      53.6908      0.00000
     26      54.3118      0.00000
     27      54.6793      0.00000
     28      56.2978      0.00000
     29      58.3124      0.00000
     30      58.8449      0.00000
     31      59.2642      0.00000
     32      60.4742      0.00000
     33      62.6095      0.00000
     34      62.8552      0.00000
     35      64.9267      0.00000
     36      65.0948      0.00000
     37      66.7609      0.00000
     38      66.9263      0.00000
     39      67.8510      0.00000
     40      68.5605      0.00000

 k-point    95 :       0.2727    0.2727    0.4545
  band No.  band energies     occupation 
      1       3.4038      2.00000
      2       3.4668      2.00000
      3       4.4486      2.00000
      4       4.6787      2.00000
      5       5.0983      2.00000
      6       5.3219      2.00000
      7       6.5843      2.00000
      8       6.7966      2.00000
      9       8.4040     -0.00000
     10       8.6004     -0.00000
     11      12.7779     -0.00000
     12      13.3117      0.00000
     13      19.1955      0.00000
     14      19.6389      0.00000
     15      21.1191      0.00000
     16      21.5312      0.00000
     17      28.2943      0.00000
     18      29.9366      0.00000
     19      33.9619      0.00000
     20      35.3926      0.00000
     21      37.0577      0.00000
     22      38.1987      0.00000
     23      46.1637      0.00000
     24      46.5849      0.00000
     25      50.6629      0.00000
     26      50.7481      0.00000
     27      57.0305      0.00000
     28      57.9089      0.00000
     29      58.4347      0.00000
     30      59.0829      0.00000
     31      60.7310      0.00000
     32      60.7557      0.00000
     33      61.1732      0.00000
     34      61.1914      0.00000
     35      63.9716      0.00000
     36      64.5624      0.00000
     37      66.5267      0.00000
     38      66.7090      0.00000
     39      67.4054      0.00000
     40      67.6385      0.00000

 k-point    96 :       0.3636    0.2727    0.4545
  band No.  band energies     occupation 
      1       3.6206      2.00000
      2       3.7587      2.00000
      3       4.3709      2.00000
      4       4.4615      2.00000
      5       5.1119      2.00000
      6       5.2450      2.00000
      7       6.6448      2.00000
      8       6.8047      2.00000
      9       8.3788     -0.00000
     10       8.4505     -0.00000
     11      14.6533      0.00000
     12      14.7974      0.00000
     13      17.4826      0.00000
     14      17.8339      0.00000
     15      20.4623      0.00000
     16      20.9096      0.00000
     17      29.9952      0.00000
     18      30.8080      0.00000
     19      33.0594      0.00000
     20      33.3294      0.00000
     21      36.7942      0.00000
     22      37.6262      0.00000
     23      47.4031      0.00000
     24      48.0501      0.00000
     25      52.1735      0.00000
     26      52.5973      0.00000
     27      55.0754      0.00000
     28      55.4422      0.00000
     29      58.4399      0.00000
     30      59.4050      0.00000
     31      60.7285      0.00000
     32      61.2503      0.00000
     33      61.8191      0.00000
     34      62.2597      0.00000
     35      62.8712      0.00000
     36      64.2036      0.00000
     37      65.7835      0.00000
     38      66.8108      0.00000
     39      69.1187      0.00000
     40      69.3331      0.00000


--------------------------------------------------------------------------------------------------------


 soft charge-density along one line, spin component           1
         0         1         2         3         4         5         6         7         8         9
x     7.7838    0.0000    0.0868   -0.1504   -0.0558   -0.0967    0.0200   -0.0000    0.0014   -0.0024
x     0.0000    0.0000
y     7.7838    0.0000    0.0868    0.1504   -0.0558    0.0967    0.0200    0.0000    0.0014    0.0024
y     0.0000    0.0000
z     7.7838    0.0000    0.0000   -0.0000    0.4443    0.0000    0.0000    0.0000   -0.1584    0.0000
z     0.0000    0.0000    0.0200   -0.0000    0.0000   -0.0000    0.0064   -0.0000    0.0000    0.0000
 total charge-density along one line
x    16.0000    0.0000    1.4543   -2.5188    0.2862    0.4956    0.0205    0.0000    0.0015   -0.0025
x    -0.0001   -0.0001    0.0001   -0.0000   -0.0000    0.0000   -0.0000    0.0000   -0.0000   -0.0000
x    -0.0000    0.0000
y    16.0000    0.0000    1.4543    2.5188    0.2862   -0.4956    0.0205   -0.0000    0.0015    0.0025
y    -0.0001    0.0001    0.0001    0.0000   -0.0000   -0.0000   -0.0000   -0.0000   -0.0000    0.0000
y    -0.0000   -0.0000
z    16.0000    0.0000    0.0000    0.0000    5.9872   -0.0000   -0.0000    0.0000    1.2968   -0.0000
z     0.0000   -0.0000    0.0372   -0.0000    0.0000   -0.0000    0.0051    0.0000    0.0000    0.0000
z     0.0010    0.0000    0.0000    0.0000   -0.0005    0.0000   -0.0000    0.0000    0.0003    0.0000
z    -0.0000   -0.0000   -0.0002    0.0000   -0.0000    0.0000    0.0002   -0.0000
 
 pseudopotential strength for first ion, spin component:           1
 -4.063   0.000  -0.000  -0.000  -0.000  -4.638   0.000  -0.000
  0.000  -4.053  -0.000  -0.000  -0.000   0.000  -4.627  -0.000
 -0.000  -0.000  -4.061   0.000  -0.000  -0.000  -0.000  -4.636
 -0.000  -0.000   0.000  -4.053   0.000  -0.000  -0.000   0.000
 -0.000  -0.000  -0.000   0.000  -4.063  -0.000  -0.000  -0.000
 -4.638   0.000  -0.000  -0.000  -0.000  -5.169   0.000  -0.000
  0.000  -4.627  -0.000  -0.000  -0.000   0.000  -5.159  -0.000
 -0.000  -0.000  -4.636   0.000  -0.000  -0.000  -0.000  -5.167
 -0.000  -0.000   0.000  -4.627   0.000  -0.000  -0.000   0.000
 -0.000  -0.000  -0.000   0.000  -4.638  -0.000  -0.000  -0.000
  0.000   0.000   0.001  -0.000  -0.000   0.000   0.000   0.000
  0.000   0.000   0.002  -0.000  -0.000   0.000   0.000   0.001
 -0.000   0.000   0.000   0.000  -0.001  -0.000   0.000   0.000
  0.000  -0.000   0.000   0.000  -0.000   0.000  -0.000   0.000
 -0.001   0.000   0.000   0.000  -0.000  -0.001   0.000   0.000
 -0.000   0.000   0.000   0.000  -0.001  -0.000   0.000   0.000
  0.000  -0.000   0.000   0.000  -0.000   0.000  -0.000   0.000
 -0.001   0.000   0.000   0.000  -0.000  -0.001   0.000   0.000
 total augmentation occupancy for first ion, spin component:           1
  1.694   0.000   0.000   0.000   0.000  -1.145   0.000  -0.000   0.000  -0.000   0.000  -0.000   0.000   0.000   0.036  -0.000
 -0.000   2.158   0.000  -0.000  -0.000   0.000  -1.370  -0.000   0.000   0.000   0.000   0.000   0.000  -0.000   0.000  -0.000
  0.000  -0.000   1.365   0.000  -0.000  -0.000  -0.000  -0.867   0.000   0.000   0.038  -0.011   0.000   0.000   0.000   0.000
  0.000  -0.000   0.000   2.158   0.000   0.000   0.000   0.000  -1.370   0.000   0.000   0.000   0.000   0.000  -0.000   0.000
  0.000   0.000  -0.000   0.000   1.694  -0.000   0.000   0.000   0.000  -1.145  -0.000   0.000   0.036  -0.000  -0.000  -0.002
 -1.145   0.000  -0.000   0.000  -0.000   1.970   0.000   0.000   0.000   0.000   0.000   0.000  -0.000   0.000  -0.051   0.000
  0.000  -1.370  -0.000   0.000   0.000   0.000   1.925  -0.000  -0.000   0.000  -0.000   0.000   0.000   0.000   0.000   0.000
 -0.000   0.000  -0.867   0.000   0.000   0.000   0.000   1.725   0.000  -0.000  -0.112   0.009   0.000   0.000  -0.000  -0.000
  0.000   0.000  -0.000  -1.370   0.000   0.000  -0.000   0.000   1.925  -0.000   0.000  -0.000   0.000   0.000  -0.000   0.000
 -0.000   0.000   0.000   0.000  -1.145  -0.000   0.000  -0.000  -0.000   1.970   0.000  -0.000  -0.051  -0.000   0.000   0.003
  0.000   0.000   0.038   0.000   0.000   0.000  -0.000  -0.112   0.000   0.000   2.839  -0.333   0.000   0.000   0.000  -0.000
 -0.000   0.000  -0.011   0.000   0.000   0.000   0.000   0.009  -0.000  -0.000  -0.333   0.044   0.000   0.000  -0.000   0.000
  0.000   0.000  -0.000   0.000   0.036  -0.000  -0.000   0.000  -0.000  -0.051   0.000  -0.000   0.382  -0.000  -0.000  -0.030
  0.000   0.000   0.000   0.000  -0.000   0.000   0.000   0.000   0.000   0.000   0.000   0.000  -0.000   0.360   0.000   0.000
  0.036   0.000   0.000   0.000  -0.000  -0.051  -0.000  -0.000   0.000   0.000   0.000   0.000  -0.000   0.000   0.382   0.000
 -0.000  -0.000   0.000   0.000  -0.002   0.000  -0.000  -0.000   0.000   0.003   0.000   0.000  -0.030  -0.000   0.000   0.003
  0.000   0.000   0.000  -0.000  -0.000  -0.000  -0.000   0.000   0.000  -0.000   0.000   0.000   0.000  -0.032   0.000  -0.000
 -0.002  -0.000  -0.000   0.000   0.000   0.003  -0.000   0.000  -0.000  -0.000   0.000   0.000   0.000   0.000  -0.030  -0.000


------------------------ aborting loop because EDIFF is reached ----------------------------------------


    CHARGE:  cpu time    0.0199: real time    0.0199
    FORLOC:  cpu time    0.0002: real time    0.0002
    FORNL :  cpu time    0.0927: real time    0.0927
    STRESS:  cpu time    0.1453: real time    0.1453
    FORCOR:  cpu time    0.0034: real time    0.0034
    FORHAR:  cpu time    0.0008: real time    0.0008
    MIXING:  cpu time    0.0002: real time    0.0002

  FORCE on cell =-STRESS in cart. coord.  units (eV):
  Direction    XX          YY          ZZ          XY          YZ          ZX
  --------------------------------------------------------------------------------------
  Alpha Z   143.41622   143.41622   143.41622
  Ewald    -401.95332  -401.95332  -445.78766     0.00000     0.00000     0.00000
  Hartree    60.48428    60.48428    44.44080    -0.00000    -0.00000    -0.00000
  E(xc)     -79.19823   -79.19825   -78.93570     0.00019     0.00000    -0.00000
  Local     105.45490   105.45509   162.63408    -0.00081     0.00000     0.00000
  n-local   -51.42676   -50.78626   -53.43879    -4.31432     1.43452     0.96627
  augment    75.43801    75.43760    75.80498     0.00100    -0.00000     0.00000
  Kinetic   155.14298   148.77835   149.63436     1.41424    -0.96233     0.17349
  Fock        0.00000     0.00000     0.00000     0.00000     0.00000     0.00000
  -------------------------------------------------------------------------------------
  Total       4.49591     4.49591    -2.23170    -0.00000     0.00000     0.00000
  in kB     373.68201   373.68201  -185.49008    -0.00000     0.00000     0.00000
  external pressure =      187.29 kB  Pullay stress =        0.00 kB


 VOLUME and BASIS-vectors are now :
 -----------------------------------------------------------------------------
  energy-cutoff  :      280.00
  volume of cell :       19.28
      direct lattice vectors                 reciprocal lattice vectors
     2.330000000  0.000000000  0.000000000     0.429184549  0.247789815  0.000000000
    -1.165000000  2.017839191  0.000000000     0.000000000  0.495579630  0.000000000
     0.000000000  0.000000000  4.100000000     0.000000000  0.000000000  0.243902439

  length of vectors
     2.330000000  2.330000000  4.100000000     0.495579630  0.495579630  0.243902439


 FORCES acting on ions
    electron-ion (+dipol)            ewald-force                    non-local-force                 convergence-correction
 -----------------------------------------------------------------------------------------------
   0.441E-06 -.507E-06 0.172E-14   0.585E-12 -.335E-12 -.237E-13   -.152E-16 0.119E-16 0.154E-18   -.180E-08 0.103E-08 -.240E-13
   -.790E-05 0.629E-05 0.251E-12   -.583E-12 0.330E-12 0.238E-13   0.131E-16 -.144E-16 0.112E-18   0.183E-08 -.105E-08 0.657E-13
 -----------------------------------------------------------------------------------------------
   -.746E-05 0.578E-05 0.253E-12   0.180E-14 -.465E-14 0.960E-17   -.205E-17 -.252E-17 0.266E-18   0.312E-10 -.181E-10 0.417E-13
 
 
 POSITION                                       TOTAL-FORCE (eV/Angst)
 -----------------------------------------------------------------------------------
      0.00000      0.00000      0.00000        -0.000000      0.000000      0.000000
      0.00000      1.34523      2.05000         0.000000     -0.000000     -0.000000
 -----------------------------------------------------------------------------------
    total drift:                               -0.000007      0.000006      0.000000


--------------------------------------------------------------------------------------------------------



  FREE ENERGIE OF THE ION-ELECTRON SYSTEM (eV)
  ---------------------------------------------------
  free  energy   TOTEN  =       -16.02693147 eV

  energy  without entropy=      -16.02879594  energy(sigma->0) =      -16.02755296
 


--------------------------------------------------------------------------------------------------------


    POTLOK:  cpu time    0.0055: real time    0.0055


--------------------------------------------------------------------------------------------------------


 writing wavefunctions
     LOOP+:  cpu time   10.3833: real time   10.4040
    4ORBIT:  cpu time    0.0000: real time    0.0000

 total amount of memory used by VASP MPI-rank0    49317. kBytes
=======================================================================

   base      :      30000. kBytes
   nonl-proj :       2992. kBytes
   grid      :        812. kBytes
   one-center:         31. kBytes
   wavefun   :      15482. kBytes
 
  
  
 General timing and accounting informations for this job:
 ========================================================
  
                  Total CPU time used (sec):       10.546
                            User time (sec):       10.514
                          System time (sec):        0.032
                         Elapsed time (sec):       10.561
  
                   Maximum memory used (kb):       54224.
                   Average memory used (kb):          N/A
  
                          Minor page faults:         7331
                          Major page faults:            0
                 Voluntary context switches:           27
