unknown system                          
   1.00000000000000     
     2.260100    0.000000    0.000000
    -1.130050    1.957304    0.000000
     0.000000    0.000000    4.096310
   Fe
     2
Direct
  0.000000  0.000000  0.000000
  0.333333  0.666667  0.500000
 
   20   20   36
  152.12      144.60      124.26      96.640      68.058      43.470      25.623      15.081      10.524      9.2912    
  8.9847      9.2913      10.524      15.081      25.623      43.470      68.058      96.640      124.26      144.60    
  144.60      144.60      130.70      106.87      79.111      53.036      32.424      18.869      11.946      9.5850    
  8.9803      8.9802      9.5849      11.946      18.868      32.422      53.035      79.113      106.88      130.71    
  124.26      130.68      124.26      106.87      83.179      58.597      37.486      22.324      13.595      9.9908    
  8.9942      8.6998      8.9939      9.9909      13.595      22.323      37.483      58.595      83.181      106.88    
  96.638      106.81      106.81      96.640      79.111      58.597      39.358      24.387      14.926      10.448    
  9.0175      8.4887      8.4885      9.0175      10.448      14.926      24.387      39.356      58.593      79.108    
  68.051      79.028      83.066      79.033      68.058      53.036      37.486      24.387      15.436      10.757    
  9.0442      8.3585      8.1122      8.3584      9.0443      10.758      15.438      24.389      37.486      53.032    
  43.469      52.965      58.473      58.474      52.968      43.470      32.424      22.324      14.926      10.757    
  9.0585      8.2997      7.8916      7.8917      8.2994      9.0577      10.757      14.928      22.328      32.427    
  25.628      32.393      37.408      39.258      37.406      32.389      25.623      18.869      13.595      10.448    
  9.0442      8.2997      7.8205      7.6588      7.8208      8.2990      9.0420      10.446      13.595      18.872    
  15.081      18.874      22.313      24.357      24.354      22.308      18.870      15.081      11.946      9.9908    
  9.0175      8.3585      7.8916      7.6588      7.6592      7.8925      8.3584      9.0152      9.9868      11.943    
  10.519      11.965      13.629      14.963      15.472      14.961      13.629      11.969      10.524      9.5850    
  8.9942      8.4887      8.1122      7.8917      7.8208      7.8925      8.1142      8.4908      8.9942      9.5816    
  9.2911      9.6109      10.042      10.520      10.840      10.841      10.523      10.046      9.6143      9.2912    
  8.9803      8.6997      8.4885      8.3584      8.2994      8.2990      8.3584      8.4908      8.7041      8.9837    
  8.9897      9.0143      9.0553      9.1039      9.1506      9.1735      9.1528      9.1062      9.0550      9.0108    
  8.9847      8.9802      8.9939      9.0175      9.0442      9.0577      9.0420      9.0152      8.9942      8.9837    
  9.2911      9.0143      8.7668      8.5858      8.4809      8.4377      8.4381      8.4810      8.5836      8.7626    
  9.0110      9.2912      9.5849      9.9909      10.448      10.758      10.757      10.446      9.9868      9.5816    
  10.519      9.6109      9.0553      8.5858      8.2421      8.0453      7.9829      8.0445      8.2402      8.5837    
  9.0553      9.6144      10.524      11.946      13.595      14.926      15.438      14.928      13.595      11.943    
  15.081      11.965      10.042      9.1039      8.4809      8.0453      7.8303      7.8298      8.0444      8.4811    
  9.1062      10.046      11.969      15.081      18.868      22.323      24.387      24.389      22.328      18.872    
  25.628      18.874      13.629      10.520      9.1506      8.4377      7.9829      7.8298      7.9826      8.4384    
  9.1528      10.522      13.629      18.870      25.623      32.422      37.483      39.356      37.486      32.427    
  43.469      32.393      22.313      14.963      10.840      9.1735      8.4381      8.0445      8.0444      8.4384    
  9.1744      10.840      14.960      22.309      32.390      43.470      53.035      58.595      58.593      53.032    
  68.051      52.965      37.408      24.357      15.472      10.841      9.1528      8.4810      8.2402      8.4811    
  9.1528      10.840      15.470      24.355      37.408      52.969      68.058      79.113      83.181      79.108    
  96.638      79.028      58.473      39.258      24.354      14.961      10.523      9.1062      8.5836      8.5837    
  9.1062      10.522      14.960      24.355      39.260      58.476      79.031      96.640      106.88      106.88    
  124.26      106.81      83.066      58.474      37.406      22.308      13.629      10.046      9.0550      8.7626    
  9.0553      10.046      13.629      22.309      37.408      58.476      83.064      106.81      124.26      130.71    
  144.60      130.68      106.81      79.033      52.968      32.389      18.870      11.969      9.6143      9.0108    
  9.0110      9.6144      11.969      18.870      32.390      52.969      79.031      106.81      130.67      144.60    
  144.47      137.33      118.01      91.764      64.591      41.242      24.364      14.483      10.279      9.1416    
  8.8404      9.1416      10.279      14.483      24.364      41.242      64.591      91.764      118.01      137.33    
  137.33      137.33      124.13      101.48      75.091      50.309      30.771      18.007      11.571      9.4126    
  8.8298      8.8297      9.4125      11.571      18.007      30.770      50.308      75.093      101.49      124.13    
  118.02      124.11      118.01      101.48      78.956      55.584      35.552      21.239      13.082      9.7710    
  8.8400      8.5522      8.8397      9.7711      13.082      21.238      35.549      55.582      78.958      101.49    
  91.762      101.44      101.44      91.764      75.091      55.584      37.322      23.172      14.309      10.177    
  8.8614      8.3456      8.3455      8.8613      10.177      14.310      23.172      37.320      55.581      75.088    
  64.584      75.028      78.870      75.033      64.591      50.309      35.552      23.172      14.781      10.454    
  8.8839      8.2193      7.9809      8.2192      8.8839      10.454      14.783      23.174      35.552      50.305    
  41.241      50.262      55.498      55.500      50.265      41.242      30.771      21.239      14.309      10.454    
  8.8955      8.1625      7.7684      7.7685      8.1623      8.8948      10.453      14.311      21.243      30.774    
  24.368      30.765      35.516      37.272      35.514      30.761      24.364      18.007      13.082      10.177    
  8.8839      8.1625      7.7001      7.5447      7.7004      8.1618      8.8818      10.175      13.082      18.010    
  14.483      18.033      21.268      23.195      23.192      21.263      18.030      14.483      11.571      9.7710    
  8.8614      8.2193      7.7684      7.5447      7.5452      7.7692      8.2191      8.8592      9.7672      11.568    
  10.274      11.608      13.151      14.394      14.869      14.393      13.151      11.611      10.279      9.4126    
  8.8400      8.3456      7.9809      7.7685      7.7004      7.7692      7.9827      8.3476      8.8400      9.4093    
  9.1415      9.4543      9.8532      10.292      10.586      10.587      10.294      9.8570      9.4574      9.1416    
  8.8298      8.5522      8.3455      8.2192      8.1623      8.1618      8.2191      8.3476      8.5563      8.8330    
  8.8451      8.8782      8.9287      8.9860      9.0351      9.0576      9.0372      8.9880      8.9285      8.8749    
  8.8404      8.8297      8.8397      8.8613      8.8839      8.8948      8.8818      8.8592      8.8400      8.8330    
  9.1415      8.8782      8.6459      8.4785      8.3833      8.3449      8.3453      8.3833      8.4763      8.6419    
  8.8751      9.1416      9.4125      9.7711      10.177      10.454      10.453      10.175      9.7672      9.4093    
  10.274      9.4543      8.9288      8.4785      8.1510      7.9644      7.9055      7.9637      8.1492      8.4765    
  8.9287      9.4576      10.279      11.571      13.082      14.310      14.783      14.311      13.082      11.568    
  14.483      11.608      9.8532      8.9860      8.3833      7.9644      7.7585      7.7580      7.9637      8.3834    
  8.9881      9.8569      11.611      14.483      18.007      21.238      23.172      23.174      21.243      18.010    
  24.368      18.033      13.151      10.292      9.0351      8.3449      7.9055      7.7580      7.9052      8.3456    
  9.0372      10.293      13.151      18.030      24.364      30.770      35.549      37.320      35.552      30.774    
  41.241      30.765      21.268      14.394      10.586      9.0576      8.3453      7.9637      7.9637      8.3456    
  9.0584      10.586      14.392      21.264      30.762      41.242      50.308      55.582      55.581      50.305    
  64.584      50.262      35.516      23.195      14.869      10.587      9.0372      8.3833      8.1492      8.3834    
  9.0372      10.586      14.868      23.192      35.516      50.265      64.591      75.093      78.958      75.088    
  91.762      75.028      55.498      37.272      23.192      14.393      10.294      8.9880      8.4763      8.4765    
  8.9881      10.293      14.392      23.192      37.273      55.502      75.031      91.764      101.49      101.49    
  118.02      101.44      78.870      55.500      35.514      21.263      13.151      9.8570      8.9285      8.6419    
  8.9287      9.8569      13.151      21.264      35.516      55.502      78.868      101.43      118.01      124.13    
  137.33      124.11      101.44      75.033      50.265      30.761      18.030      11.611      9.4574      8.8749    
  8.8751      9.4576      11.611      18.030      30.762      50.265      75.031      101.43      124.10      137.33    
  123.79      117.68      101.11      78.562      55.212      35.247      21.017      12.927      9.6502      8.7312    
  8.4474      8.7312      9.6502      12.927      21.017      35.247      55.212      78.562      101.11      117.68    
  117.68      117.68      106.36      86.903      64.205      42.948      26.350      15.741      10.603      8.9527    
  8.4179      8.4178      8.9525      10.603      15.741      26.349      42.947      64.207      86.908      106.36    
  101.12      106.35      101.11      86.903      67.518      47.442      30.360      18.364      11.750      9.1985    
  8.4152      8.1482      8.4149      9.1985      11.751      18.363      30.358      47.441      67.520      86.907    
  78.560      86.893      86.894      78.562      64.205      47.442      31.849      19.947      12.700      9.4758    
  8.4288      7.9524      7.9522      8.4287      9.4762      12.700      19.947      31.848      47.439      64.203    
  55.206      64.198      67.509      64.202      55.212      42.948      30.360      19.947      13.068      9.6688    
  8.4449      7.8348      7.6192      7.8348      8.4449      9.6693      13.070      19.948      30.360      42.944    
  35.246      42.967      47.464      47.465      42.969      35.247      26.350      18.364      12.700      9.6688    
  8.4519      7.7826      7.4282      7.4283      7.7825      8.4513      9.6687      12.702      18.367      26.352    
  21.021      26.408      30.443      31.938      30.441      26.405      21.017      15.741      11.750      9.4758    
  8.4449      7.7826      7.3672      7.2292      7.3675      7.7821      8.4433      9.4742      11.751      15.743    
  12.927      15.825      18.505      20.113      20.112      18.501      15.822      12.927      10.603      9.1985    
  8.4288      7.8348      7.4282      7.2292      7.2296      7.4288      7.8347      8.4270      9.1954      10.600    
  9.6461      10.692      11.919      12.920      13.306      12.919      11.919      10.694      9.6502      8.9527    
  8.4152      7.9524      7.6192      7.4283      7.3675      7.4288      7.6206      7.9540      8.4152      8.9499    
  8.7310      9.0400      9.3691      9.7127      9.9424      9.9431      9.7147      9.3722      9.0426      8.7312    
  8.4179      8.1482      7.9522      7.8348      7.7825      7.7821      7.8347      7.9540      8.1516      8.4206    
  8.4513      8.5085      8.5853      8.6660      8.7287      8.7532      8.7303      8.6676      8.5850      8.5057    
  8.4474      8.4178      8.4149      8.4287      8.4449      8.4513      8.4433      8.4270      8.4152      8.4206    
  8.7310      8.5085      8.3202      8.1919      8.1245      8.1002      8.1006      8.1246      8.1901      8.3169    
  8.5059      8.7312      8.9525      9.1985      9.4762      9.6693      9.6687      9.4742      9.1954      8.9499    
  9.6461      9.0400      8.5853      8.1919      7.9120      7.7554      7.7065      7.7549      7.9106      8.1903    
  8.5853      9.0428      9.6502      10.603      11.751      12.700      13.070      12.702      11.751      10.600    
  12.927      10.692      9.3691      8.6660      8.1245      7.7554      7.5759      7.5756      7.7548      8.1247    
  8.6677      9.3721      10.694      12.927      15.741      18.363      19.947      19.948      18.367      15.743    
  21.021      15.825      11.919      9.7127      8.7287      8.1002      7.7065      7.5756      7.7062      8.1007    
  8.7303      9.7143      11.919      15.822      21.017      26.349      30.358      31.848      30.360      26.352    
  35.246      26.408      18.505      12.920      9.9424      8.7532      8.1006      7.7549      7.7548      8.1007    
  8.7538      9.9426      12.918      18.502      26.406      35.247      42.947      47.441      47.439      42.944    
  55.206      42.966      30.443      20.113      13.306      9.9431      8.7303      8.1246      7.9106      8.1247    
  8.7303      9.9426      13.304      20.112      30.443      42.970      55.212      64.207      67.520      64.203    
  78.560      64.198      47.464      31.938      20.112      12.919      9.7147      8.6676      8.1901      8.1903    
  8.6677      9.7143      12.918      20.112      31.939      47.466      64.201      78.562      86.908      86.907    
  101.12      86.893      67.509      47.465      30.441      18.501      11.919      9.3722      8.5850      8.3169    
  8.5853      9.3721      11.919      18.502      30.443      47.466      67.507      86.889      101.11      106.36    
  117.68      106.35      86.894      64.202      42.969      26.405      15.822      10.694      9.0426      8.5057    
  8.5059      9.0428      10.694      15.822      26.406      42.970      64.201      86.889      106.35      117.68    
  95.786      91.039      78.163      60.622      42.522      27.246      16.676      10.995      8.8710      8.1565    
  7.9043      8.1565      8.8710      10.995      16.676      27.246      42.522      60.622      78.163      91.039    
  91.041      91.039      82.231      67.085      49.440      33.052      20.530      12.865      9.4193      8.3220    
  7.8451      7.8450      8.3219      9.4194      12.865      20.529      33.051      49.441      67.089      82.235    
  78.166      82.247      78.163      67.085      51.993      36.464      23.473      14.664      10.105      8.4653    
  7.8182      7.5858      7.8179      8.4653      10.105      14.664      23.472      36.463      51.994      67.088    
  60.620      67.124      67.124      60.622      49.440      36.464      24.574      15.769      10.693      8.6010    
  7.8140      7.4016      7.4014      7.8138      8.6012      10.694      15.769      24.573      36.462      49.438    
  42.518      49.510      52.090      49.513      42.522      33.052      23.473      15.769      10.926      8.6963    
  7.8191      7.2921      7.1107      7.2921      7.8191      8.6965      10.927      15.770      23.473      33.049    
  27.245      33.162      36.634      36.635      33.164      27.246      20.530      14.664      10.693      8.6963    
  7.8222      7.2434      6.9471      6.9472      7.2435      7.8218      8.6961      10.694      14.667      20.532    
  16.679      20.678      23.719      24.854      23.718      20.676      16.676      12.865      10.105      8.6010    
  7.8191      7.2435      6.8953      6.7816      6.8956      7.2432      7.8179      8.5999      10.105      12.867    
  10.995      13.030      14.961      16.136      16.135      14.958      13.028      10.995      9.4193      8.4653    
  7.8140      7.2921      6.9471      6.7816      6.7818      6.9475      7.2919      7.8127      8.4631      9.4174    
  8.8680      9.5807      10.414      11.104      11.372      11.103      10.414      9.5827      8.8710      8.3220    
  7.8182      7.4016      7.1107      6.9472      6.8956      6.9475      7.1116      7.4027      7.8182      8.3200    
  8.1564      8.4760      8.7645      9.0153      9.1745      9.1749      9.0166      8.7666      8.4779      8.1565    
  7.8451      7.5858      7.4015      7.2921      7.2435      7.2432      7.2919      7.4027      7.5882      7.8470    
  7.9071      7.9981      8.1093      8.2195      8.3019      8.3330      8.3030      8.2206      8.1090      7.9961    
  7.9043      7.8450      7.8179      7.8138      7.8191      7.8218      7.8179      7.8127      7.8182      7.8470    
  8.1564      7.9981      7.8754      7.8032      7.7751      7.7703      7.7706      7.7752      7.8020      7.8730    
  7.9962      8.1565      8.3219      8.4653      8.6012      8.6965      8.6961      8.5999      8.4631      8.3200    
  8.8680      8.4760      8.1093      7.8032      7.5940      7.4814      7.4472      7.4812      7.5932      7.8021    
  8.1093      8.4780      8.8710      9.4194      10.105      10.694      10.927      10.694      10.105      9.4174    
  10.995      9.5807      8.7645      8.2195      7.7751      7.4814      7.3416      7.3414      7.4810      7.7752    
  8.2207      8.7666      9.5825      10.995      12.865      14.664      15.769      15.770      14.667      12.867    
  16.679      13.030      10.414      9.0153      8.3019      7.7703      7.4472      7.3414      7.4470      7.7706    
  8.3030      9.0164      10.414      13.028      16.676      20.529      23.472      24.573      23.473      20.532    
  27.245      20.678      14.961      11.104      9.1745      8.3330      7.7706      7.4812      7.4810      7.7706    
  8.3334      9.1746      11.103      14.958      20.676      27.246      33.051      36.463      36.462      33.049    
  42.518      33.162      23.719      16.136      11.372      9.1749      8.3030      7.7752      7.5932      7.7752    
  8.3030      9.1746      11.371      16.135      23.719      33.164      42.522      49.441      51.994      49.438    
  60.620      49.510      36.634      24.854      16.135      11.103      9.0166      8.2206      7.8020      7.8021    
  8.2207      9.0164      11.103      16.135      24.855      36.636      49.511      60.622      67.089      67.088    
  78.166      67.124      52.090      36.635      23.718      14.958      10.414      8.7666      8.1090      7.8730    
  8.1093      8.7666      10.414      14.958      23.719      36.636      52.089      67.121      78.163      82.235    
  91.041      82.247      67.124      49.513      33.164      20.676      13.028      9.5827      8.4779      7.9961    
  7.9962      8.4780      9.5825      13.028      20.676      33.164      49.511      67.121      82.242      91.039    
  66.864      63.520      54.459      42.163      29.631      19.344      12.604      9.3007      8.1214      7.5321    
  7.3241      7.5321      8.1214      9.3007      12.604      19.344      29.631      42.163      54.459      63.520    
  63.522      63.520      57.309      46.653      34.342      23.140      14.928      10.266      8.3740      7.6267    
  7.2303      7.2302      7.6266      8.3741      10.266      14.928      23.140      34.343      46.655      57.311    
  54.461      57.343      54.459      46.653      36.091      25.401      16.755      11.246      8.6627      7.7094    
  7.1700      6.9826      7.1697      7.7093      8.6629      11.246      16.754      25.400      36.092      46.655    
  42.163      46.741      46.741      42.163      34.342      25.401      17.447      11.866      8.9212      7.7655    
  7.1373      6.8062      6.8060      7.1371      7.7655      8.9214      11.866      17.447      25.399      34.341    
  29.628      34.490      36.295      34.491      29.631      23.140      16.755      11.866      9.0265      7.7942    
  7.1229      6.6992      6.5578      6.6993      7.1229      7.7942      9.0269      11.867      16.755      23.138    
  19.344      23.341      25.719      25.720      23.342      19.344      14.928      11.246      8.9212      7.7942    
  7.1191      6.6505      6.4196      6.4197      6.6507      7.1190      7.7941      8.9219      11.247      14.930    
  12.606      15.165      17.162      17.916      17.161      15.164      12.604      10.266      8.6627      7.7655    
  7.1229      6.6505      6.3760      6.2880      6.3762      6.6504      7.1223      7.7649      8.6629      10.267    
  9.3006      10.512      11.697      12.433      12.432      11.695      10.511      9.3007      8.3740      7.7094    
  7.1373      6.6992      6.4196      6.2880      6.2881      6.4198      6.6991      7.1366      7.7081      8.3728    
  8.1195      8.6101      9.1150      9.5254      9.6851      9.5249      9.1150      8.6114      8.1214      7.6267    
  7.1700      6.8062      6.5578      6.4197      6.3762      6.4198      6.5582      6.8068      7.1700      7.6255    
  7.5320      7.8513      8.1441      8.3663      8.4872      8.4873      8.3669      8.1454      7.8525      7.5321    
  7.2303      6.9826      6.8060      6.6993      6.6507      6.6505      6.6991      6.8068      6.9841      7.2314    
  7.3258      7.4503      7.5911      7.7245      7.8212      7.8569      7.8218      7.7250      7.5909      7.4490    
  7.3241      7.2302      7.1697      7.1371      7.1229      7.1190      7.1223      7.1366      7.1700      7.2314    
  7.5320      7.4503      7.3995      7.3851      7.3955      7.4092      7.4094      7.3956      7.3844      7.3981    
  7.4491      7.5321      7.6266      7.7093      7.7655      7.7942      7.7941      7.7649      7.7081      7.6255    
  8.1195      7.8513      7.5911      7.3851      7.2529      7.1866      7.1677      7.1866      7.2525      7.3845    
  7.5911      7.8526      8.1214      8.3741      8.6629      8.9214      9.0269      8.9219      8.6629      8.3728    
  9.3006      8.6101      8.1442      7.7245      7.3955      7.1866      7.0901      7.0900      7.1864      7.3956    
  7.7252      8.1454      8.6113      9.3007      10.266      11.246      11.866      11.867      11.247      10.267    
  12.606      10.512      9.1150      8.3663      7.8212      7.4092      7.1677      7.0900      7.1675      7.4093    
  7.8218      8.3669      9.1148      10.510      12.604      14.928      16.754      17.447      16.755      14.930    
  19.344      15.165      11.697      9.5254      8.4872      7.8569      7.4094      7.1866      7.1864      7.4093    
  7.8571      8.4873      9.5247      11.695      15.164      19.344      23.140      25.400      25.399      23.138    
  29.628      23.341      17.162      12.433      9.6851      8.4873      7.8218      7.3956      7.2525      7.3956    
  7.8218      8.4873      9.6848      12.432      17.162      23.342      29.631      34.343      36.092      34.341    
  42.163      34.490      25.719      17.916      12.432      9.5249      8.3669      7.7250      7.3844      7.3845    
  7.7252      8.3669      9.5247      12.432      17.916      25.720      34.491      42.163      46.655      46.655    
  54.461      46.741      36.295      25.720      17.161      11.695      9.1150      8.1454      7.5909      7.3981    
  7.5911      8.1454      9.1148      11.695      17.162      25.720      36.294      46.739      54.459      57.311    
  63.522      57.343      46.741      34.491      23.342      15.164      10.511      8.6114      7.8525      7.4490    
  7.4491      7.8526      8.6113      10.510      15.164      23.342      34.491      46.739      57.340      63.520    
  42.025      39.918      34.235      26.626      19.085      13.213      9.6978      8.1523      7.4217      6.9562    
  6.7987      6.9563      7.4217      8.1523      9.6978      13.213      19.085      26.626      34.235      39.918    
  39.918      39.918      36.004      29.352      21.827      15.252      10.770      8.4946      7.5593      6.9744    
  6.6717      6.6716      6.9743      7.5595      8.4949      10.770      15.252      21.827      29.353      36.005    
  34.236      36.051      34.235      29.352      22.857      16.498      11.656      8.8594      7.6519      6.9916    
  6.5747      6.4355      6.5745      6.9916      7.6521      8.8596      11.656      16.498      22.857      29.353    
  26.626      29.476      29.476      26.626      21.827      16.498      11.999      9.1023      7.7123      7.0014    
  6.5079      6.2618      6.2617      6.5078      7.0013      7.7123      9.1021      11.999      16.497      21.826    
  19.084      22.030      23.137      22.031      19.085      15.252      11.656      9.1023      7.7360      7.0046    
  6.4691      6.1514      6.0485      6.1515      6.4691      7.0045      7.7360      9.1024      11.656      15.252    
  13.213      15.519      16.923      16.923      15.519      13.213      10.770      8.8594      7.7123      7.0046    
  6.4564      6.0987      5.9287      5.9288      6.0989      6.4564      7.0045      7.7126      8.8602      10.771    
  9.6986      11.072      12.180      12.605      12.179      11.071      9.6978      8.4946      7.6519      7.0014    
  6.4691      6.0987      5.8905      5.8248      5.8907      6.0988      6.4689      7.0012      7.6521      8.4953    
  8.1522      8.8026      9.4264      9.8178      9.8176      9.4258      8.8022      8.1523      7.5593      6.9916    
  6.5079      6.1514      5.9287      5.8248      5.8248      5.9287      6.1513      6.5076      6.9911      7.5588    
  7.4207      7.8565      8.2189      8.4695      8.5619      8.4692      8.2189      7.8572      7.4217      6.9744    
  6.5747      6.2618      6.0485      5.9288      5.8907      5.9287      6.0485      6.2620      6.5747      6.9738    
  6.9562      7.2593      7.5414      7.7593      7.8778      7.8778      7.7595      7.5419      7.2599      6.9562    
  6.6717      6.4354      6.2617      6.1515      6.0989      6.0988      6.1513      6.2620      6.4362      6.6722    
  6.7995      6.9503      7.1097      7.2541      7.3561      7.3931      7.3563      7.2542      7.1095      6.9497    
  6.7987      6.6716      6.5745      6.5078      6.4691      6.4564      6.4689      6.5076      6.5747      6.6722    
  6.9562      6.9503      6.9652      6.9994      7.0397      7.0670      7.0671      7.0398      6.9991      6.9645    
  6.9498      6.9562      6.9743      6.9916      7.0013      7.0045      7.0045      7.0012      6.9911      6.9738    
  7.4207      7.2593      7.1097      6.9994      6.9363      6.9099      6.9038      6.9101      6.9363      6.9992    
  7.1097      7.2600      7.4217      7.5595      7.6521      7.7123      7.7361      7.7126      7.6521      7.5588    
  8.1522      7.8565      7.5415      7.2541      7.0397      6.9099      6.8524      6.8524      6.9099      7.0398    
  7.2544      7.5420      7.8570      8.1523      8.4949      8.8596      9.1021      9.1024      8.8602      8.4953    
  9.6986      8.8026      8.2189      7.7593      7.3561      7.0670      6.9038      6.8524      6.9036      7.0669    
  7.3563      7.7595      8.2187      8.8019      9.6978      10.770      11.656      11.999      11.656      10.771    
  13.213      11.072      9.4264      8.4695      7.8778      7.3931      7.0671      6.9101      6.9099      7.0669    
  7.3931      7.8779      8.4692      9.4257      11.071      13.213      15.252      16.498      16.497      15.252    
  19.084      15.519      12.180      9.8179      8.5619      7.8778      7.3563      7.0398      6.9363      7.0398    
  7.3563      7.8779      8.5619      9.8177      12.180      15.519      19.085      21.827      22.857      21.826    
  26.626      22.030      16.923      12.605      9.8176      8.4692      7.7595      7.2542      6.9991      6.9992    
  7.2544      7.7595      8.4692      9.8177      12.605      16.923      22.031      26.626      29.353      29.353    
  34.236      29.476      23.137      16.923      12.179      9.4258      8.2189      7.5419      7.1095      6.9645    
  7.1097      7.5420      8.2187      9.4257      12.180      16.923      23.137      29.475      34.235      36.005    
  39.918      36.051      29.476      22.031      15.519      11.071      8.8022      7.8572      7.2599      6.9497    
  6.9498      7.2600      7.8570      8.8019      11.071      15.519      22.031      29.475      36.050      39.918    
  24.041      22.901      19.866      15.917      12.204      9.5552      8.1317      7.3850      6.8311      6.4962    
  6.3867      6.4962      6.8311      7.3850      8.1317      9.5552      12.204      15.917      19.866      22.901    
  22.902      22.901      20.791      17.277      13.459      10.352      8.4447      7.5050      6.8753      6.4417    
  6.2290      6.2290      6.4416      6.8754      7.5053      8.4449      10.352      13.459      17.277      20.791    
  19.866      20.843      19.866      17.277      13.941      10.861      8.7196      7.5792      6.9003      6.3953    