unknown system                          
   1.00000000000000     
     2.260100    0.000000    0.000000
    -1.130050    1.957304    0.000000
     0.000000    0.000000    4.096310
   Fe
     2
Direct
  0.000000  0.000000  0.000000
  0.333333  0.666667  0.500000
 
   20   20   36
 0.15212299509E+03 0.14459954935E+03 0.12425913001E+03 0.96639858156E+02 0.68057643490E+02
 0.43469967174E+02 0.25622672080E+02 0.15081485045E+02 0.10523801695E+02 0.92912149879E+01
 0.89847158880E+01 0.92912514139E+01 0.10523836699E+02 0.15081490934E+02 0.25622663749E+02
 0.43469977547E+02 0.68057677400E+02 0.96639887052E+02 0.12425913198E+03 0.14459953734E+03
 0.14460289073E+03 0.14459954492E+03 0.13069883764E+03 0.10687084212E+03 0.79110991909E+02
 0.53036050012E+02 0.32423654988E+02 0.18868693358E+02 0.11946059007E+02 0.95850453933E+01
 0.89803073092E+01 0.89801645551E+01 0.95849084426E+01 0.11946121082E+02 0.18868320340E+02
 0.32422364102E+02 0.53035192598E+02 0.79113281282E+02 0.10687725018E+03 0.13070630633E+03
 0.12426408358E+03 0.13067860330E+03 0.12425913136E+03 0.10687084687E+03 0.83179077375E+02
 0.58596709855E+02 0.37485549666E+02 0.22324179463E+02 0.13594899326E+02 0.99908301039E+01
 0.89942338538E+01 0.86997508988E+01 0.89939353561E+01 0.99908969963E+01 0.13595162886E+02
 0.22323372285E+02 0.37483339048E+02 0.58595268192E+02 0.83181256916E+02 0.10687646699E+03
 0.96637594292E+02 0.10681370792E+03 0.10681447664E+03 0.96639867347E+02 0.79110989540E+02
 0.58596705145E+02 0.39358209108E+02 0.24386636849E+02 0.14925516874E+02 0.10447903545E+02
 0.90175325772E+01 0.84886684115E+01 0.84885070367E+01 0.90174531477E+01 0.10448467745E+02
 0.14926382919E+02 0.24386582909E+02 0.39356340678E+02 0.58593424368E+02 0.79107635127E+02
 0.68050509691E+02 0.79027805107E+02 0.83066110541E+02 0.79033416674E+02 0.68057643551E+02
 0.53036040780E+02 0.37485553319E+02 0.24386641260E+02 0.15435963116E+02 0.10757008106E+02
 0.90442427860E+01 0.83585264740E+01 0.81122257331E+01 0.83584332981E+01 0.90442507480E+01
 0.10757739351E+02 0.15437909101E+02 0.24388875669E+02 0.37485555151E+02 0.53031839203E+02
 0.43469109013E+02 0.52964756827E+02 0.58472630431E+02 0.58474469048E+02 0.52968097542E+02
 0.43469962621E+02 0.32423656571E+02 0.22324188237E+02 0.14925511907E+02 0.10757004204E+02
 0.90585286499E+01 0.82997072916E+01 0.78916334762E+01 0.78916919606E+01 0.82994377359E+01
 0.90576801808E+01 0.10756870816E+02 0.14927807145E+02 0.22328377404E+02 0.32426586031E+02
 0.25627615355E+02 0.32393369291E+02 0.37407836361E+02 0.39258208213E+02 0.37405651320E+02
 0.32389176116E+02 0.25622668497E+02 0.18868697973E+02 0.13594896092E+02 0.10447895711E+02
 0.90442490859E+01 0.82997105900E+01 0.78204706308E+01 0.76587576117E+01 0.78207512085E+01
 0.82989977354E+01 0.90420346452E+01 0.10445746451E+02 0.13595162886E+02 0.18872102268E+02
 0.15081430208E+02 0.18873803448E+02 0.22313358040E+02 0.24356730536E+02 0.24354461648E+02
 0.22308395786E+02 0.18870037550E+02 0.15081481843E+02 0.11946061855E+02 0.99908257904E+01
 0.90175374054E+01 0.83585330666E+01 0.78916258896E+01 0.76587548642E+01 0.76592468713E+01
 0.78924997689E+01 0.83583725722E+01 0.90152211136E+01 0.99868211376E+01 0.11942706962E+02
 0.10518595914E+02 0.11965431473E+02 0.13628817346E+02 0.14962535815E+02 0.15471561263E+02
 0.14961121145E+02 0.13628816063E+02 0.11968822150E+02 0.10523806823E+02 0.95850479888E+01
 0.89942315754E+01 0.84886719954E+01 0.81122194489E+01 0.78916866155E+01 0.78207598099E+01
 0.78925020104E+01 0.81141526569E+01 0.84907997967E+01 0.89942245352E+01 0.95815550477E+01
 0.92910883435E+01 0.96109154412E+01 0.10042257507E+02 0.10519894312E+02 0.10840307013E+02
 0.10841160770E+02 0.10522587255E+02 0.10046315818E+02 0.96142584374E+01 0.92912210915E+01
 0.89803012577E+01 0.86997487191E+01 0.84885089250E+01 0.83584307221E+01 0.82994451267E+01
 0.82990018278E+01 0.83583634036E+01 0.84907981011E+01 0.87040505538E+01 0.89836810204E+01
 0.89896674940E+01 0.90142976146E+01 0.90552916184E+01 0.91039490594E+01 0.91506205443E+01
 0.91734946729E+01 0.91528026993E+01 0.91061649080E+01 0.90550336687E+01 0.90108230672E+01
 0.89847135227E+01 0.89801596080E+01 0.89939423963E+01 0.90174552587E+01 0.90442490859E+01
 0.90576815364E+01 0.90420266831E+01 0.90152183965E+01 0.89942338538E+01 0.89836821249E+01
 0.92910793144E+01 0.90142970958E+01 0.87668332164E+01 0.85858459628E+01 0.84809270439E+01
 0.84376928761E+01 0.84381229098E+01 0.84809769488E+01 0.85835736804E+01 0.87625882265E+01
 0.90109801614E+01 0.92912484885E+01 0.95849123153E+01 0.99909007379E+01 0.10448459918E+02
 0.10757737065E+02 0.10756872432E+02 0.10445746459E+02 0.99868291928E+01 0.95815563250E+01
 0.10518588245E+02 0.96109155073E+01 0.90552997969E+01 0.85858458887E+01 0.82421395971E+01
 0.80452876278E+01 0.79828596311E+01 0.80444912536E+01 0.82402187755E+01 0.85837093539E+01
 0.90552955129E+01 0.96144215078E+01 0.10523834158E+02 0.11946122581E+02 0.13595157936E+02
 0.14926380442E+02 0.15437917375E+02 0.14927809634E+02 0.13595161171E+02 0.11942705612E+02
 0.15081432137E+02 0.11965433932E+02 0.10042264203E+02 0.91039477463E+01 0.84809202147E+01
 0.80452882852E+01 0.78302639826E+01 0.78297902086E+01 0.80444383455E+01 0.84810597143E+01
 0.91061963953E+01 0.10046205656E+02 0.11968769242E+02 0.15081489661E+02 0.18868322347E+02
 0.22323372610E+02 0.24386588352E+02 0.24388876701E+02 0.22328368956E+02 0.18872099661E+02
 0.25627623686E+02 0.18873806035E+02 0.13628815127E+02 0.10519891035E+02 0.91506153322E+01
 0.84376953090E+01 0.79828649108E+01 0.78297891524E+01 0.79825977870E+01 0.84384091586E+01
 0.91528026993E+01 0.10522002263E+02 0.13628526884E+02 0.18870398746E+02 0.25622668497E+02
 0.32422366114E+02 0.37483337216E+02 0.39356338270E+02 0.37485549666E+02 0.32426586461E+02
 0.43469114133E+02 0.32393367640E+02 0.22313350300E+02 0.14962533476E+02 0.10840309552E+02
 0.91734984509E+01 0.84381264279E+01 0.80444881521E+01 0.80444345867E+01 0.84384102438E+01
 0.91743691348E+01 0.10840470799E+02 0.14960268104E+02 0.22309188101E+02 0.32390457691E+02
 0.43469978114E+02 0.53035187739E+02 0.58595265426E+02 0.58593426311E+02 0.53031843576E+02
 0.68050507404E+02 0.52964750996E+02 0.37407832193E+02 0.24356733182E+02 0.15471567929E+02
 0.10841162593E+02 0.91527998121E+01 0.84809731227E+01 0.82402169614E+01 0.84810627174E+01
 0.91528050242E+01 0.10840470084E+02 0.15469665962E+02 0.24354522374E+02 0.37407835800E+02
 0.52968966076E+02 0.68057675174E+02 0.79113282300E+02 0.83181261855E+02 0.79107638515E+02
 0.96637589274E+02 0.79027801314E+02 0.58472633299E+02 0.39258214919E+02 0.24354464300E+02
 0.14961117635E+02 0.10522581839E+02 0.91061637205E+01 0.85835770065E+01 0.85837127541E+01
 0.91061965209E+01 0.10522000124E+02 0.14960266933E+02 0.24354522379E+02 0.39260048562E+02
 0.58475869396E+02 0.79031147792E+02 0.96639891225E+02 0.10687725233E+03 0.10687646439E+03
 0.12426408161E+03 0.10681371163E+03 0.83066115413E+02 0.58474472969E+02 0.37405647713E+02
 0.22308388707E+02 0.13628815127E+02 0.10046319847E+02 0.90550379527E+01 0.87625889905E+01
 0.90552916184E+01 0.10046202989E+02 0.13628528167E+02 0.22309188762E+02 0.37407836361E+02
 0.58475870449E+02 0.83063894438E+02 0.10680807533E+03 0.12425913136E+03 0.13070629959E+03
 0.14460289155E+03 0.13067861177E+03 0.10681447798E+03 0.79033412397E+02 0.52968093197E+02
 0.32389172398E+02 0.18870041912E+02 0.11968829041E+02 0.96142577078E+01 0.90108192218E+01
 0.90109768348E+01 0.96144207121E+01 0.11968773673E+02 0.18870400522E+02 0.32390455624E+02
 0.52968967562E+02 0.79031147307E+02 0.10680807296E+03 0.13067112452E+03 0.14459953373E+03
 0.14446602338E+03 0.13732625966E+03 0.11801203111E+03 0.91764308880E+02 0.64590877431E+02
 0.41242056903E+02 0.24363702523E+02 0.14483394291E+02 0.10279254169E+02 0.91416059528E+01
 0.88404304632E+01 0.91416412548E+01 0.10279288270E+02 0.14483400260E+02 0.24363694307E+02
 0.41242066080E+02 0.64590909063E+02 0.91764336106E+02 0.11801203305E+03 0.13732624837E+03
 0.13732940256E+03 0.13732625527E+03 0.12412675643E+03 0.10148481468E+03 0.75090789942E+02
 0.50308880435E+02 0.30771265578E+02 0.18007269507E+02 0.11570723780E+02 0.94125940810E+01
 0.88298089875E+01 0.88296678830E+01 0.94124586060E+01 0.11570798753E+02 0.18006959442E+02
 0.30770091222E+02 0.50308089211E+02 0.75092935559E+02 0.10149083031E+03 0.12413377745E+03
 0.11801669216E+03 0.12411108662E+03 0.11801203243E+03 0.10148481937E+03 0.78955570245E+02
 0.55583847164E+02 0.35551509866E+02 0.21238657842E+02 0.13082001407E+02 0.97709995267E+01
 0.88399695664E+01 0.85522463272E+01 0.88396700731E+01 0.97710521825E+01 0.13082266872E+02
 0.21237930800E+02 0.35549448073E+02 0.55582483201E+02 0.78957603216E+02 0.10149009814E+03
 0.91762187150E+02 0.10144006534E+03 0.10144078413E+03 0.91764317954E+02 0.75090787608E+02
 0.55583842521E+02 0.37321733101E+02 0.23172378544E+02 0.14308896237E+02 0.10176969946E+02
 0.88613687218E+01 0.83456172876E+01 0.83454583400E+01 0.88612771668E+01 0.10177482558E+02
 0.14309694898E+02 0.23172311761E+02 0.37319959325E+02 0.55580745796E+02 0.75087632416E+02
 0.64584182755E+02 0.75027605765E+02 0.78869987419E+02 0.75032876639E+02 0.64590877500E+02
 0.50308871335E+02 0.35551513480E+02 0.23172382897E+02 0.14780848534E+02 0.10453539336E+02
 0.88839070116E+01 0.82192658857E+01 0.79808911479E+01 0.82191879344E+01 0.88839148599E+01
 0.10454204643E+02 0.14782643796E+02 0.23174460717E+02 0.35551515273E+02 0.50304935024E+02
 0.41241264953E+02 0.50261515156E+02 0.55498490719E+02 0.55500223156E+02 0.50264657407E+02
 0.41242052424E+02 0.30771267148E+02 0.21238666502E+02 0.14308891332E+02 0.10453535481E+02
 0.88955450179E+01 0.81624857084E+01 0.77684304205E+01 0.77685018430E+01 0.81622638966E+01
 0.88947631642E+01 0.10453403516E+02 0.14311042726E+02 0.21242618288E+02 0.30774046537E+02
 0.24368353416E+02 0.30764504130E+02 0.35516420842E+02 0.37271719559E+02 0.35514382467E+02
 0.30760575556E+02 0.24363698988E+02 0.18007274062E+02 0.13081998208E+02 0.10176962204E+02
 0.88839132132E+01 0.81624889610E+01 0.77000941719E+01 0.75446992742E+01 0.77003760052E+01
 0.81618411745E+01 0.88818476608E+01 0.10174955197E+02 0.13082266872E+02 0.18010492035E+02
 0.14483326631E+02 0.18033281718E+02 0.21268071656E+02 0.23194525150E+02 0.23192398465E+02
 0.21263423948E+02 0.18029763451E+02 0.14483391124E+02 0.11570726582E+02 0.97709952581E+01
 0.88613734700E+01 0.82192723895E+01 0.77684229557E+01 0.75446965705E+01 0.75451513086E+01
 0.77692293410E+01 0.82191143052E+01 0.88592018402E+01 0.97672394517E+01 0.11567570936E+02
 0.10274338853E+02 0.11608201704E+02 0.13151231419E+02 0.14394001921E+02 0.14869326640E+02
 0.14392663301E+02 0.13151230155E+02 0.11611406803E+02 0.10279259218E+02 0.94125966363E+01
 0.88399673155E+01 0.83456208309E+01 0.79808849711E+01 0.77684965849E+01 0.77003844794E+01
 0.77692315477E+01 0.79826680396E+01 0.83476072958E+01 0.88399603805E+01 0.94093044183E+01
 0.91414806362E+01 0.94542838110E+01 0.98531614119E+01 0.10291514276E+02 0.10585963097E+02
 0.10586750706E+02 0.10294015868E+02 0.98569584367E+01 0.94574283092E+01 0.91416119799E+01
 0.88298030349E+01 0.85522441933E+01 0.83454602123E+01 0.82191854001E+01 0.81622711744E+01
 0.81618451997E+01 0.82191052672E+01 0.83476056249E+01 0.85562933058E+01 0.88329826892E+01
 0.88450895723E+01 0.88782004227E+01 0.89287421257E+01 0.89859819599E+01 0.90351190331E+01
 0.90575597689E+01 0.90371545531E+01 0.89880427437E+01 0.89284821925E+01 0.88749257856E+01
 0.88404281595E+01 0.88296630161E+01 0.88396770081E+01 0.88612792411E+01 0.88839132132E+01
 0.88947644904E+01 0.88818398124E+01 0.88591991662E+01 0.88399695664E+01 0.88329837750E+01
 0.91414717273E+01 0.88781999159E+01 0.86458513444E+01 0.84784573044E+01 0.83832645289E+01
 0.83449185462E+01 0.83453315710E+01 0.83833273159E+01 0.84763272669E+01 0.86418562208E+01
 0.88750806108E+01 0.91416383730E+01 0.94124624108E+01 0.97710558544E+01 0.10177474834E+02
 0.10454202383E+02 0.10453405111E+02 0.10174955215E+02 0.97672473922E+01 0.94093056678E+01
 0.10274331285E+02 0.94542838891E+01 0.89287502074E+01 0.84784572295E+01 0.81510052311E+01
 0.79644385820E+01 0.79054686246E+01 0.79637211602E+01 0.81492329807E+01 0.84764614924E+01
 0.89287459674E+01 0.94575889277E+01 0.10279285751E+02 0.11570800211E+02 0.13082261983E+02
 0.14309692459E+02 0.14782651958E+02 0.14311045193E+02 0.13082265182E+02 0.11567569593E+02
 0.14483328531E+02 0.11608204144E+02 0.98531680307E+01 0.89859806590E+01 0.83832577769E+01
 0.79644392317E+01 0.77584625576E+01 0.77580250425E+01 0.79636554000E+01 0.83833957813E+01
 0.89880879041E+01 0.98568635783E+01 0.11611341043E+02 0.14483398993E+02 0.18006961417E+02
 0.21237931134E+02 0.23172317137E+02 0.23174461739E+02 0.21242609962E+02 0.18010489455E+02
 0.24368361632E+02 0.18033284273E+02 0.13151229232E+02 0.10291511035E+02 0.90351138770E+01
 0.83449209505E+01 0.79054738438E+01 0.77580239952E+01 0.79052048497E+01 0.83455701477E+01
 0.90371545531E+01 0.10293482447E+02 0.13150939848E+02 0.18030062624E+02 0.24363698988E+02
 0.30770093218E+02 0.35549446280E+02 0.37319956948E+02 0.35551509866E+02 0.30774046963E+02
 0.41241270000E+02 0.30764502492E+02 0.21268064012E+02 0.14393999609E+02 0.10585965601E+02
 0.90575634990E+01 0.83453350516E+01 0.79637180885E+01 0.79636516786E+01 0.83455712241E+01
 0.90583672720E+01 0.10586124421E+02 0.14391876397E+02 0.21264137222E+02 0.30761740864E+02
 0.41242066648E+02 0.50308084432E+02 0.55582480468E+02 0.55580747707E+02 0.50304939344E+02
 0.64584180494E+02 0.50261509391E+02 0.35516416726E+02 0.23194527766E+02 0.14869333224E+02
 0.10586752505E+02 0.90371517046E+01 0.83833235370E+01 0.81492311784E+01 0.83833987544E+01
 0.90371568607E+01 0.10586123716E+02 0.14867579120E+02 0.23192472094E+02 0.35516420294E+02
 0.50265458535E+02 0.64590906872E+02 0.75092936564E+02 0.78957608073E+02 0.75087635755E+02
 0.91762182198E+02 0.75027602024E+02 0.55498493557E+02 0.37271726184E+02 0.23192401084E+02
 0.14392659831E+02 0.10294010520E+02 0.89880415806E+01 0.84763305477E+01 0.84764648481E+01
 0.89880880420E+01 0.10293480339E+02 0.14391875239E+02 0.23192472097E+02 0.37273467835E+02
 0.55501548711E+02 0.75030749957E+02 0.91764340228E+02 0.10149083241E+03 0.10149009555E+03
 0.11801669022E+03 0.10144006902E+03 0.78869992245E+02 0.55500227033E+02 0.35514378899E+02
 0.21263416952E+02 0.13151229232E+02 0.98569624280E+01 0.89284864326E+01 0.86418569615E+01
 0.89287421257E+01 0.98568609508E+01 0.13150941112E+02 0.21264137869E+02 0.35516420842E+02
 0.55501549749E+02 0.78867920220E+02 0.10143477501E+03 0.11801203243E+03 0.12413377078E+03
 0.13732940337E+03 0.12411109499E+03 0.10144078547E+03 0.75032872420E+02 0.50264653105E+02
 0.30760571875E+02 0.18029767757E+02 0.11611413618E+02 0.94574276031E+01 0.88749219765E+01
 0.88750773085E+01 0.94575881435E+01 0.11611345418E+02 0.18030064375E+02 0.30761738821E+02
 0.50265459997E+02 0.75030749479E+02 0.10143477267E+03 0.12410405654E+03 0.13732624480E+03
 0.12379370346E+03 0.11767888002E+03 0.10111397462E+03 0.78561621748E+02 0.55211759233E+02
 0.35246624634E+02 0.21017402731E+02 0.12926802215E+02 0.96501813934E+01 0.87311579703E+01
 0.84474009998E+01 0.87311904557E+01 0.96502133266E+01 0.12926808558E+02 0.21017394847E+02
 0.35246630548E+02 0.55211784703E+02 0.78561644475E+02 0.10111397648E+03 0.11767887069E+03
 0.11768148491E+03 0.11767887577E+03 0.10635637708E+03 0.86903121200E+02 0.64205497642E+02
 0.42947584830E+02 0.26350111389E+02 0.15740652442E+02 0.10603097833E+02 0.89526682316E+01
 0.84179338066E+01 0.84177986602E+01 0.89525383075E+01 0.10603204502E+02 0.15740504655E+02
 0.26349244635E+02 0.42946969801E+02 0.64207255155E+02 0.86908075509E+02 0.10636218550E+03
 0.10111784239E+03 0.10635356893E+03 0.10111397587E+03 0.86903125716E+02 0.67518021276E+02
 0.47441792305E+02 0.30359603073E+02 0.18363592897E+02 0.11750306310E+02 0.91984735029E+01
 0.84151681687E+01 0.81481890655E+01 0.84148695252E+01 0.91984892997E+01 0.11750573107E+02
 0.18363076445E+02 0.30357941165E+02 0.47440640626E+02 0.67519660452E+02 0.86907480698E+02
 0.78559883758E+02 0.86893038673E+02 0.86893622983E+02 0.78561630484E+02 0.64205495405E+02
 0.47441787850E+02 0.31849393907E+02 0.19946673298E+02 0.12699857074E+02 0.94758440817E+01
 0.84287877994E+01 0.79523778446E+01 0.79522267690E+01 0.84286664447E+01 0.94762202541E+01
 0.12700476285E+02 0.19946575126E+02 0.31847880210E+02 0.47439192317E+02 0.64202880222E+02
 0.55206251694E+02 0.64197961513E+02 0.67508713230E+02 0.64202310391E+02 0.55211759324E+02
 0.42947576102E+02 0.30359606571E+02 0.19946677486E+02 0.13068442061E+02 0.96688413695E+01
 0.84449357741E+01 0.78348172740E+01 0.76192115327E+01 0.78347786030E+01 0.84449432944E+01
 0.96693326940E+01 0.13069836135E+02 0.19948335844E+02 0.30359608258E+02 0.42944355585E+02
 0.35246008939E+02 0.42966501100E+02 0.47463819571E+02 0.47465263547E+02 0.42969105367E+02
 0.35246620357E+02 0.26350112920E+02 0.18363601230E+02 0.12699852350E+02 0.96688376544E+01
 0.84519200593E+01 0.77825971092E+01 0.74281752384E+01 0.74282784745E+01 0.77824984838E+01
 0.84513157696E+01 0.96687110851E+01 0.12701615394E+02 0.18366907081E+02 0.26352480460E+02
 0.21021260763E+02 0.26408475546E+02 0.30442517634E+02 0.31937787469E+02 0.30440873319E+02
 0.26405260992E+02 0.21017399336E+02 0.15740656824E+02 0.11750303221E+02 0.94758366119E+01
 0.84449416955E+01 0.77826002297E+01 0.73672074894E+01 0.72292097685E+01 0.73674892198E+01
 0.77821243421E+01 0.84432762019E+01 0.94742120696E+01 0.11750573107E+02 0.15743366338E+02
 0.12926703215E+02 0.15824895757E+02 0.18504864029E+02 0.20113444298E+02 0.20111701550E+02
 0.18501064840E+02 0.15822043684E+02 0.12926799154E+02 0.10603100507E+02 0.91984693679E+01
 0.84287923209E+01 0.78348235206E+01 0.74281681204E+01 0.72292071888E+01 0.72295625786E+01
 0.74287947406E+01 0.78346732601E+01 0.84270110702E+01 0.91953856156E+01 0.10600484943E+02
 0.96460575729E+01 0.10691780872E+02 0.11919019925E+02 0.12920203567E+02 0.13305571400E+02
 0.12919072795E+02 0.11919018720E+02 0.10694479509E+02 0.96501862195E+01 0.89526706720E+01
 0.84151659975E+01 0.79523812668E+01 0.76192056592E+01 0.74282734632E+01 0.73674973274E+01
 0.74287968474E+01 0.76205887872E+01 0.79539874863E+01 0.84151593632E+01 0.89499240915E+01
 0.87310377808E+01 0.90400196675E+01 0.93690894567E+01 0.97127154972E+01 0.99424446883E+01
 0.99430562230E+01 0.97147049965E+01 0.93721825179E+01 0.90426260864E+01 0.87311637741E+01
 0.84179281327E+01 0.81481870555E+01 0.79522285918E+01 0.78347761885E+01 0.77825054374E+01
 0.77821281752E+01 0.78346645990E+01 0.79539858869E+01 0.81515507673E+01 0.84205655511E+01
 0.84512669155E+01 0.85084667052E+01 0.85852682355E+01 0.86659761988E+01 0.87287013234E+01
 0.87532099890E+01 0.87303428701E+01 0.86676215976E+01 0.85850067439E+01 0.85057355085E+01
 0.84473988635E+01 0.84177940190E+01 0.84148761595E+01 0.84286684168E+01 0.84449416955E+01
 0.84513170116E+01 0.84432686816E+01 0.84270085208E+01 0.84151681687E+01 0.84205665839E+01
 0.87310292178E+01 0.85084662316E+01 0.83202003748E+01 0.81918810905E+01 0.81245326770E+01
 0.81001945746E+01 0.81005596554E+01 0.81246269740E+01 0.81901351099E+01 0.83168832180E+01
 0.85058828222E+01 0.87311876966E+01 0.89525419196E+01 0.91984927776E+01 0.94762128316E+01
 0.96693305110E+01 0.96687126171E+01 0.94742121168E+01 0.91953932284E+01 0.89499252631E+01
 0.96460502968E+01 0.90400197767E+01 0.85852760359E+01 0.81918810115E+01 0.79119715724E+01
 0.77553876524E+01 0.77065002062E+01 0.77548775906E+01 0.79105947185E+01 0.81902638624E+01
 0.85852719248E+01 0.90427787613E+01 0.96502108766E+01 0.10603205850E+02 0.11750568402E+02
 0.12700473959E+02 0.13069843972E+02 0.12701617791E+02 0.11750571491E+02 0.10600483617E+02
 0.12926705035E+02 0.10691783251E+02 0.93690958513E+01 0.86659749292E+01 0.81245261486E+01
 0.77553882829E+01 0.75759368148E+01 0.75755959291E+01 0.77547804106E+01 0.81246585465E+01
 0.86677002163E+01 0.93721270229E+01 0.10694382329E+02 0.12926807316E+02 0.15740506537E+02
 0.18363076801E+02 0.19946580306E+02 0.19948336835E+02 0.18366899104E+02 0.15743363838E+02
 0.21021268647E+02 0.15824898225E+02 0.11919017827E+02 0.97127123621E+01 0.87286963302E+01
 0.81001969010E+01 0.77065052541E+01 0.75755949077E+01 0.77062350253E+01 0.81006756299E+01
 0.87303428701E+01 0.97143075945E+01 0.11918728882E+02 0.15822183068E+02 0.21017399336E+02
 0.26349246584E+02 0.30357939478E+02 0.31847877916E+02 0.30359603073E+02 0.26352480878E+02
 0.35246013777E+02 0.26408473948E+02 0.18504856666E+02 0.12920201336E+02 0.99424470932E+01
 0.87532135856E+01 0.81005630312E+01 0.77548746058E+01 0.77547767952E+01 0.81006766793E+01
 0.87538394075E+01 0.99425980408E+01 0.12918461938E+02 0.18501570355E+02 0.26406119317E+02
 0.35246631109E+02 0.42946965245E+02 0.47440637989E+02 0.47439194135E+02 0.42944359757E+02
 0.55206249513E+02 0.42966495526E+02 0.30442513671E+02 0.20113446827E+02 0.13305577750E+02
 0.99430579503E+01 0.87303401346E+01 0.81246233286E+01 0.79105929488E+01 0.81246614294E+01
 0.87303451278E+01 0.99425973633E+01 0.13304217434E+02 0.20111806893E+02 0.30442517123E+02
 0.42969726976E+02 0.55211782612E+02 0.64207256122E+02 0.67519665080E+02 0.64202883426E+02
 0.78559878996E+02 0.64197957915E+02 0.47463822321E+02 0.31937793867E+02 0.20111704075E+02
 0.12919069441E+02 0.97146998412E+01 0.86676205012E+01 0.81901382595E+01 0.81902670910E+01
 0.86677003895E+01 0.97143055742E+01 0.12918460815E+02 0.20111806889E+02 0.31939282754E+02
 0.47466384690E+02 0.64200567639E+02 0.78561648449E+02 0.86908077495E+02 0.86907478168E+02
 0.10111784053E+03 0.86893042257E+02 0.67508717913E+02 0.47465267294E+02 0.30440869867E+02
 0.18501058084E+02 0.11919017827E+02 0.93721863966E+01 0.85850108551E+01 0.83168838970E+01
 0.85852682355E+01 0.93721245071E+01 0.11918730087E+02 0.18501570961E+02 0.30442517634E+02
 0.47466385687E+02 0.67507046138E+02 0.86888674541E+02 0.10111397587E+03 0.10636217902E+03
 0.11768148569E+03 0.10635357705E+03 0.86893624312E+02 0.64202306336E+02 0.42969101195E+02
 0.26405257421E+02 0.15822047828E+02 0.10694486101E+02 0.90426254464E+01 0.85057318094E+01
 0.85058795968E+01 0.90427780122E+01 0.10694386541E+02 0.15822184745E+02 0.26406117343E+02
 0.42969728379E+02 0.64200567182E+02 0.86888672286E+02 0.10634775423E+03 0.11767886723E+03
 0.95786027839E+02 0.91038824067E+02 0.78163168899E+02 0.60621648794E+02 0.42522208210E+02
 0.27245566847E+02 0.16676191103E+02 0.10995023422E+02 0.88710124032E+01 0.81564830733E+01
 0.79043001868E+01 0.81565116528E+01 0.88710412014E+01 0.10995030077E+02 0.16676183721E+02
 0.27245568771E+02 0.42522225928E+02 0.60621665799E+02 0.78163170642E+02 0.91038817222E+02
 0.91040699782E+02 0.91038820044E+02 0.82231132552E+02 0.67085098438E+02 0.49439564135E+02
 0.33051644827E+02 0.20529769905E+02 0.12864765325E+02 0.94193001158E+01 0.83219981748E+01
 0.78451035503E+01 0.78449806406E+01 0.83218799099E+01 0.94194398996E+01 0.12864813007E+02
 0.20529296082E+02 0.33051259430E+02 0.49440800426E+02 0.67088621648E+02 0.82235300178E+02
 0.78165960698E+02 0.82246588092E+02 0.78163170062E+02 0.67085102687E+02 0.51992999677E+02
 0.36463522160E+02 0.23473050479E+02 0.14664383528E+02 0.10104698369E+02 0.84652957267E+01
 0.78181946387E+01 0.75858037681E+01 0.78179079894E+01 0.84652673284E+01 0.10104956324E+02
 0.14664133218E+02 0.23471919905E+02 0.36462662621E+02 0.51994115139E+02 0.67088210185E+02
 0.60620426492E+02 0.67123765516E+02 0.67124170104E+02 0.60621657013E+02 0.49439562029E+02
 0.36463517984E+02 0.24574240773E+02 0.15769158989E+02 0.10693119266E+02 0.86010432451E+01
 0.78139768575E+01 0.74015853653E+01 0.74014490993E+01 0.78138249231E+01 0.86012451931E+01
 0.10693504878E+02 0.15769027918E+02 0.24573089165E+02 0.36461607904E+02 0.49437678559E+02
 0.42518300448E+02 0.49509520507E+02 0.52090099860E+02 0.49512624143E+02 0.42522208312E+02
 0.33051636650E+02 0.23473053791E+02 0.15769162924E+02 0.10925679750E+02 0.86962586848E+01
 0.78190590265E+01 0.72920600658E+01 0.71107284372E+01 0.72920688826E+01 0.78190660444E+01
 0.86965279442E+01 0.10926551393E+02 0.15770267225E+02 0.23473055329E+02 0.33049376870E+02
 0.27245180873E+02 0.33162139298E+02 0.36634206188E+02 0.36635257390E+02 0.33164014426E+02
 0.27245562856E+02 0.20529771365E+02 0.14664391361E+02 0.10693114825E+02 0.86962551921E+01
 0.78222062034E+01 0.72434487598E+01 0.69470754131E+01 0.69472119476E+01 0.72434981395E+01
 0.78218329878E+01 0.86961400469E+01 0.10694356287E+02 0.14666815139E+02 0.20531566540E+02
 0.16678973777E+02 0.20677880956E+02 0.23718667557E+02 0.24853543081E+02 0.23717547339E+02
 0.20675624915E+02 0.16676187915E+02 0.12864769448E+02 0.10104695460E+02 0.86010362111E+01
 0.78190645280E+01 0.72434516768E+01 0.68953026160E+01 0.67815959544E+01 0.68955734948E+01
 0.72431950742E+01 0.78179306212E+01 0.85999210543E+01 0.10104956324E+02 0.12866780399E+02
 0.10994891586E+02 0.13029908631E+02 0.14960627384E+02 0.16136167045E+02 0.16134940290E+02
 0.14957966478E+02 0.13027945098E+02 0.10995020530E+02 0.94193026115E+01 0.84652918148E+01
 0.78139810387E+01 0.72920659159E+01 0.69470688135E+01 0.67815935616E+01 0.67818192767E+01
 0.69474613544E+01 0.72919303922E+01 0.78127241066E+01 0.84631117953E+01 0.94174188488E+01
 0.88679727227E+01 0.95806683639E+01 0.10413816709E+02 0.11103854816E+02 0.11371938456E+02
 0.11103010563E+02 0.10413815597E+02 0.95826710052E+01 0.88710169053E+01 0.83220004423E+01
 0.78181925884E+01 0.74015885906E+01 0.71107230103E+01 0.69472073039E+01 0.68955810380E+01
 0.69474633103E+01 0.71115854383E+01 0.74026884062E+01 0.78181864115E+01 0.83199973495E+01
 0.81563738981E+01 0.84759981138E+01 0.87644610718E+01 0.90153323569E+01 0.91744976709E+01
 0.91748797556E+01 0.90166465378E+01 0.87666121956E+01 0.84778752594E+01 0.81564885265E+01
 0.78450982863E+01 0.75858019267E+01 0.74014508359E+01 0.72920666516E+01 0.72435045996E+01
 0.72431986173E+01 0.72919223111E+01 0.74026869175E+01 0.75882355464E+01 0.78470009557E+01
 0.79070902435E+01 0.79981018087E+01 0.81092647120E+01 0.82194930426E+01 0.83018761062E+01
 0.83329752921E+01 0.83029936878E+01 0.82205894466E+01 0.81090117097E+01 0.79961112390E+01
 0.79042982800E+01 0.78449763307E+01 0.78179141664E+01 0.78138267491E+01 0.78190645280E+01
 0.78218341053E+01 0.78179236033E+01 0.78127217514E+01 0.78181946387E+01 0.78470019099E+01
 0.81563658658E+01 0.79981013831E+01 0.78754257429E+01 0.78032357729E+01 0.77751090163E+01
 0.77703155859E+01 0.77706105080E+01 0.77752364177E+01 0.78020059693E+01 0.78730290215E+01
 0.79962442456E+01 0.81565090738E+01 0.83218832349E+01 0.84652705319E+01 0.86012382505E+01
 0.86965258819E+01 0.86961414774E+01 0.85999211457E+01 0.84631189106E+01 0.83199984069E+01
 0.88679658940E+01 0.84759982649E+01 0.81092720712E+01 0.78032356846E+01 0.75940257792E+01
 0.74814120537E+01 0.74472328654E+01 0.74811642014E+01 0.75931641957E+01 0.78021231767E+01
 0.81092681623E+01 0.84780130141E+01 0.88710388748E+01 0.94194411019E+01 0.10104951913E+02
 0.10693502723E+02 0.10926558721E+02 0.10694358573E+02 0.10104954821E+02 0.94174175554E+01
 0.10994893284E+02 0.95806706467E+01 0.87644671115E+01 0.82194918133E+01 0.77751028328E+01
 0.74814126596E+01 0.73415717178E+01 0.73413570412E+01 0.74810340626E+01 0.77752234863E+01
 0.82207037862E+01 0.87666045797E+01 0.95825408664E+01 0.10995028881E+02 0.12864814755E+02
 0.14664133602E+02 0.15769032785E+02 0.15770268157E+02 0.14666807691E+02 0.12866778025E+02
 0.16678981160E+02 0.13029910965E+02 0.10413814744E+02 0.90153293768E+01 0.83018713672E+01
 0.77703178047E+01 0.74472376616E+01 0.73413560584E+01 0.74469764128E+01 0.77705788212E+01
 0.83029936878E+01 0.90164232625E+01 0.10413537175E+02 0.13027892128E+02 0.16676187915E+02
 0.20529297947E+02 0.23471918368E+02 0.24573086987E+02 0.23473050479E+02 0.20531566944E+02
 0.27245185399E+02 0.20677879427E+02 0.14960620454E+02 0.11103852709E+02 0.91744999278E+01
 0.83329786933E+01 0.77706137317E+01 0.74811613507E+01 0.74810306061E+01 0.77705798261E+01
 0.83333725388E+01 0.91746360627E+01 0.11102629116E+02 0.14958209436E+02 0.20676091195E+02
 0.27245569306E+02 0.33051255202E+02 0.36462660125E+02 0.36461609584E+02 0.33049380819E+02
 0.42518298395E+02 0.33162134018E+02 0.23718663832E+02 0.16136169441E+02 0.11371944448E+02
 0.91748813754E+01 0.83029911261E+01 0.77752329716E+01 0.75931624730E+01 0.77752262237E+01
 0.83029958651E+01 0.91746354256E+01 0.11371097119E+02 0.16135078781E+02 0.23718667098E+02
 0.33164402324E+02 0.42522223976E+02 0.49440801336E+02 0.51994119436E+02 0.49437681575E+02
 0.60620422024E+02 0.49509517117E+02 0.36634208795E+02 0.24853549129E+02 0.16134942672E+02
 0.11103007387E+02 0.90166416672E+01 0.82205884443E+01 0.78020089149E+01 0.78021262106E+01
 0.82207040132E+01 0.90164213719E+01 0.11102628047E+02 0.16135078766E+02 0.24854685019E+02
 0.36636096263E+02 0.49511397373E+02 0.60621669550E+02 0.67088623480E+02 0.67088207768E+02
 0.78165958955E+02 0.67123768924E+02 0.52090104299E+02 0.36635260938E+02 0.23717544073E+02
 0.14957960093E+02 0.10413814744E+02 0.87666158858E+01 0.81090156186E+01 0.78730296224E+01
 0.81092647120E+01 0.87666022302E+01 0.10413538287E+02 0.14958209980E+02 0.23718667557E+02
 0.36636097204E+02 0.52088964437E+02 0.67120651884E+02 0.78163170062E+02 0.82235294025E+02
 0.91040700519E+02 0.82246595790E+02 0.67124171384E+02 0.49512620339E+02 0.33164010471E+02
 0.20675621527E+02 0.13027948992E+02 0.95826772379E+01 0.84778747173E+01 0.79961077233E+01
 0.79962411556E+01 0.84780123208E+01 0.95825448162E+01 0.13027893688E+02 0.20676089336E+02
 0.33164403647E+02 0.49511396959E+02 0.67120649756E+02 0.82242417616E+02 0.91038813936E+02
 0.66863872713E+02 0.63520426691E+02 0.54459067544E+02 0.42163384919E+02 0.29630662642E+02
 0.19344266490E+02 0.12603883080E+02 0.93007037528E+01 0.81213772845E+01 0.75320940011E+01
 0.73241342762E+01 0.75321166922E+01 0.81214001920E+01 0.93007088647E+01 0.12603876309E+02
 0.19344266234E+02 0.29630674782E+02 0.42163397416E+02 0.54459069142E+02 0.63520421865E+02
 0.63521562174E+02 0.63520422964E+02 0.57308532944E+02 0.46653032419E+02 0.34342173201E+02
 0.23139758694E+02 0.14928360027E+02 0.10265591712E+02 0.83739698331E+01 0.76267253625E+01