   2   2   0   0
  0.9060429E+01  0.2260100E-09  0.2260100E-09  0.4096310E-09  0.5000000E-15
  1.000000000000000E-004
  CAR 
 unknown system                          
     77.65257964     -5.01326288  301      8.33443529      1.00000000
     -5.013  0.0000E+00  0.0000E+00
     -4.738  0.0000E+00  0.0000E+00
     -4.462  0.0000E+00  0.0000E+00
     -4.187  0.0000E+00  0.0000E+00
     -3.911  0.0000E+00  0.0000E+00
     -3.635  0.0000E+00  0.0000E+00
     -3.360  0.0000E+00  0.0000E+00
     -3.084 -0.6931E-38 -0.1910E-38
     -2.809 -0.7736E-28 -0.2132E-28
     -2.533 -0.1883E-19 -0.5189E-20
     -2.258 -0.9547E-13 -0.2631E-13
     -1.982 -0.1050E-07 -0.2893E-08
     -1.707 -0.2313E-04 -0.6377E-05
     -1.431 -0.4201E-03 -0.1221E-03
     -1.156  0.8845E-02  0.2315E-02
     -0.880  0.4419E-01  0.1449E-01
     -0.604  0.9793E-01  0.4148E-01
     -0.329  0.5251E-01  0.5595E-01
     -0.053  0.1327E+00  0.9252E-01
      0.222  0.1573E+00  0.1359E+00
      0.498  0.1955E+00  0.1897E+00
      0.773  0.8542E-01  0.2133E+00
      1.049  0.1817E+00  0.2633E+00
      1.324  0.3044E+00  0.3472E+00
      1.600  0.2859E+00  0.4260E+00
      1.876  0.3202E+00  0.5142E+00
      2.151  0.2442E+00  0.5815E+00
      2.427  0.3560E+00  0.6796E+00
      2.702  0.1316E+01  0.1042E+01
      2.978  0.1897E+01  0.1565E+01
      3.253  0.1783E+01  0.2056E+01
      3.529  0.2681E+01  0.2795E+01
      3.804  0.2302E+01  0.3429E+01
      4.080  0.2473E+01  0.4110E+01
      4.356  0.2204E+01  0.4718E+01
      4.631  0.2802E+01  0.5490E+01
      4.907  0.2638E+01  0.6217E+01
      5.182  0.2957E+01  0.7031E+01
      5.458  0.2118E+01  0.7615E+01
      5.733  0.1862E+01  0.8128E+01
      6.009  0.3167E+01  0.9001E+01
      6.284  0.3180E+01  0.9877E+01
      6.560  0.3175E+01  0.1075E+02
      6.836  0.3227E+01  0.1164E+02
      7.111  0.2698E+01  0.1238E+02
      7.387  0.3160E+01  0.1326E+02
      7.662  0.2970E+01  0.1407E+02
      7.938  0.2877E+01  0.1487E+02
      8.213  0.2969E+01  0.1568E+02
      8.489  0.2552E+01  0.1639E+02
      8.764  0.2891E+01  0.1718E+02
      9.040  0.3860E+01  0.1825E+02
      9.315  0.4143E+01  0.1939E+02
      9.591  0.3440E+01  0.2034E+02
      9.867  0.2807E+01  0.2111E+02
     10.142  0.5270E+00  0.2126E+02
     10.418  0.3802E+00  0.2136E+02
     10.693  0.4048E+00  0.2147E+02
     10.969  0.5980E+00  0.2164E+02
     11.244  0.7473E+00  0.2184E+02
     11.520  0.7007E+00  0.2204E+02
     11.795  0.3939E+00  0.2214E+02
     12.071  0.2992E+00  0.2223E+02
     12.347  0.4620E+00  0.2235E+02
     12.622  0.3673E+00  0.2246E+02
     12.898  0.2969E+00  0.2254E+02
     13.173  0.6317E+00  0.2271E+02
     13.449  0.4708E+00  0.2284E+02
     13.724  0.4781E+00  0.2297E+02
     14.000  0.4242E+00  0.2309E+02
     14.275  0.3203E+00  0.2318E+02
     14.551  0.1364E+00  0.2322E+02
     14.827  0.4267E+00  0.2333E+02
     15.102  0.2982E+00  0.2342E+02
     15.378  0.4294E+00  0.2353E+02
     15.653  0.1300E+00  0.2357E+02
     15.929  0.3327E+00  0.2366E+02
     16.204  0.3235E+00  0.2375E+02
     16.480  0.4689E+00  0.2388E+02
     16.755  0.4127E+00  0.2399E+02
     17.031  0.2312E+00  0.2406E+02
     17.307  0.2029E+00  0.2411E+02
     17.582  0.1383E+00  0.2415E+02
     17.858  0.8000E-01  0.2417E+02
     18.133  0.2634E+00  0.2425E+02
     18.409  0.3778E+00  0.2435E+02
     18.684  0.1109E+00  0.2438E+02
     18.960  0.5205E+00  0.2452E+02
     19.235  0.4454E+00  0.2465E+02
     19.511  0.9563E+00  0.2491E+02
     19.786  0.8338E+00  0.2514E+02
     20.062  0.7436E+00  0.2534E+02
     20.338  0.3811E+00  0.2545E+02
     20.613  0.5553E+00  0.2560E+02
     20.889  0.5995E+00  0.2577E+02
     21.164  0.6395E+00  0.2594E+02
     21.440  0.7381E+00  0.2615E+02
     21.715  0.9175E+00  0.2640E+02
     21.991  0.6756E+00  0.2659E+02
     22.266  0.3385E+00  0.2668E+02
     22.542  0.5810E+00  0.2684E+02
     22.818  0.7456E+00  0.2705E+02
     23.093  0.7063E+00  0.2724E+02
     23.369  0.5467E+00  0.2739E+02
     23.644  0.4952E+00  0.2753E+02
     23.920  0.6642E+00  0.2771E+02
     24.195  0.4355E+00  0.2783E+02
     24.471  0.6526E+00  0.2801E+02
     24.746  0.7672E+00  0.2822E+02
     25.022  0.6124E+00  0.2839E+02
     25.298  0.4721E+00  0.2852E+02
     25.573  0.7306E+00  0.2872E+02
     25.849  0.4951E+00  0.2886E+02
     26.124  0.7498E+00  0.2906E+02
     26.400  0.1282E+01  0.2942E+02
     26.675  0.8499E+00  0.2965E+02
     26.951  0.5759E+00  0.2981E+02
     27.226  0.8484E+00  0.3004E+02
     27.502  0.7142E+00  0.3024E+02
     27.778  0.8613E+00  0.3048E+02
     28.053  0.1027E+01  0.3076E+02
     28.329  0.8531E+00  0.3100E+02
     28.604  0.8503E+00  0.3123E+02
     28.880  0.9222E+00  0.3149E+02
     29.155  0.5216E+00  0.3163E+02
     29.431  0.1351E+01  0.3200E+02
     29.706  0.1319E+01  0.3236E+02
     29.982  0.8025E+00  0.3259E+02
     30.257  0.3372E+00  0.3268E+02
     30.533  0.9042E+00  0.3293E+02
     30.809  0.7807E+00  0.3314E+02
     31.084  0.8973E+00  0.3339E+02
     31.360  0.7399E+00  0.3359E+02
     31.635  0.9254E+00  0.3385E+02
     31.911  0.7752E+00  0.3406E+02
     32.186  0.9366E+00  0.3432E+02
     32.462  0.5744E+00  0.3448E+02
     32.737  0.5785E+00  0.3464E+02
     33.013  0.7093E+00  0.3483E+02
     33.289  0.5020E+00  0.3497E+02
     33.564  0.5767E+00  0.3513E+02
     33.840  0.7354E+00  0.3533E+02
     34.115  0.7625E+00  0.3554E+02
     34.391  0.5762E+00  0.3570E+02
     34.666  0.6063E+00  0.3587E+02
     34.942  0.6812E+00  0.3606E+02
     35.217  0.7043E+00  0.3625E+02
     35.493  0.9302E+00  0.3651E+02
     35.769  0.7006E+00  0.3670E+02
     36.044  0.5812E+00  0.3686E+02
     36.320  0.7174E+00  0.3706E+02
     36.595  0.5628E+00  0.3721E+02
     36.871  0.7106E+00  0.3741E+02
     37.146  0.7147E+00  0.3761E+02
     37.422  0.1299E+01  0.3796E+02
     37.697  0.8788E+00  0.3821E+02
     37.973  0.6754E+00  0.3839E+02
     38.249  0.6511E+00  0.3857E+02
     38.524  0.1021E+01  0.3885E+02
     38.800  0.1106E+01  0.3916E+02
     39.075  0.8066E+00  0.3938E+02
     39.351  0.8058E+00  0.3960E+02
     39.626  0.1309E+01  0.3996E+02
     39.902  0.9701E+00  0.4023E+02
     40.177  0.1256E+01  0.4058E+02
     40.453  0.7597E+00  0.4079E+02
     40.729  0.9455E+00  0.4105E+02
     41.004  0.9386E+00  0.4131E+02
     41.280  0.4832E+00  0.4144E+02
     41.555  0.5051E+00  0.4158E+02
     41.831  0.8792E+00  0.4182E+02
     42.106  0.6807E+00  0.4201E+02
     42.382  0.5354E+00  0.4215E+02
     42.657  0.4903E+00  0.4229E+02
     42.933  0.9792E+00  0.4256E+02
     43.208  0.9235E+00  0.4281E+02
     43.484  0.9604E+00  0.4308E+02
     43.760  0.5587E+00  0.4323E+02
     44.035  0.7353E+00  0.4344E+02
     44.311  0.6238E+00  0.4361E+02
     44.586  0.8715E+00  0.4385E+02
     44.862  0.5670E+00  0.4400E+02
     45.137  0.8511E+00  0.4424E+02
     45.413  0.7503E+00  0.4445E+02
     45.688  0.1132E+01  0.4476E+02
     45.964  0.1096E+01  0.4506E+02
     46.240  0.9363E+00  0.4532E+02
     46.515  0.1443E+01  0.4571E+02
     46.791  0.7435E+00  0.4592E+02
     47.066  0.1003E+01  0.4620E+02
     47.342  0.1068E+01  0.4649E+02
     47.617  0.1254E+01  0.4684E+02
     47.893  0.1120E+01  0.4714E+02
     48.168  0.8691E+00  0.4738E+02
     48.444  0.1151E+01  0.4770E+02
     48.720  0.8592E+00  0.4794E+02
     48.995  0.7347E+00  0.4814E+02
     49.271  0.8924E+00  0.4839E+02
     49.546  0.7579E+00  0.4859E+02
     49.822  0.1051E+01  0.4888E+02
     50.097  0.1082E+01  0.4918E+02
     50.373  0.9368E+00  0.4944E+02
     50.648  0.4951E+00  0.4958E+02
     50.924  0.7898E+00  0.4979E+02
     51.200  0.1350E+01  0.5017E+02
     51.475  0.1081E+01  0.5046E+02
     51.751  0.7646E+00  0.5068E+02
     52.026  0.5289E+00  0.5082E+02
     52.302  0.1027E+01  0.5110E+02
     52.577  0.1258E+01  0.5145E+02
     52.853  0.1096E+01  0.5175E+02
     53.128  0.6127E+00  0.5192E+02
     53.404  0.7941E+00  0.5214E+02
     53.679  0.9112E+00  0.5239E+02
     53.955  0.1135E+01  0.5270E+02
     54.231  0.7853E+00  0.5292E+02
     54.506  0.1160E+01  0.5324E+02
     54.782  0.1545E+01  0.5367E+02
     55.057  0.1146E+01  0.5398E+02
     55.333  0.1171E+01  0.5430E+02
     55.608  0.1054E+01  0.5459E+02
     55.884  0.1353E+01  0.5497E+02
     56.159  0.1028E+01  0.5525E+02
     56.435  0.1128E+01  0.5556E+02
     56.711  0.1057E+01  0.5585E+02
     56.986  0.6934E+00  0.5604E+02
     57.262  0.8830E+00  0.5629E+02
     57.537  0.1100E+01  0.5659E+02
     57.813  0.1555E+01  0.5702E+02
     58.088  0.1045E+01  0.5731E+02
     58.364  0.1259E+01  0.5765E+02
     58.639  0.1294E+01  0.5801E+02
     58.915  0.1273E+01  0.5836E+02
     59.191  0.1418E+01  0.5875E+02
     59.466  0.1429E+01  0.5915E+02
     59.742  0.1724E+01  0.5962E+02
     60.017  0.1166E+01  0.5994E+02
     60.293  0.1199E+01  0.6027E+02
     60.568  0.1414E+01  0.6066E+02
     60.844  0.1720E+01  0.6114E+02
     61.119  0.2296E+01  0.6177E+02
     61.395  0.1613E+01  0.6221E+02
     61.671  0.1805E+01  0.6271E+02
     61.946  0.1592E+01  0.6315E+02
     62.222  0.1549E+01  0.6358E+02
     62.497  0.1621E+01  0.6402E+02
     62.773  0.2469E+01  0.6470E+02
     63.048  0.2586E+01  0.6542E+02
     63.324  0.2871E+01  0.6621E+02
     63.599  0.2138E+01  0.6680E+02
     63.875  0.2391E+01  0.6745E+02
     64.150  0.1511E+01  0.6787E+02
     64.426  0.1240E+01  0.6821E+02
     64.702  0.1694E+01  0.6868E+02
     64.977  0.1854E+01  0.6919E+02
     65.253  0.1093E+01  0.6949E+02
     65.528  0.1445E+01  0.6989E+02
     65.804  0.1203E+01  0.7022E+02
     66.079  0.1732E+01  0.7070E+02
     66.355  0.1290E+01  0.7105E+02
     66.630  0.1210E+01  0.7139E+02
     66.906  0.1551E+01  0.7181E+02
     67.182  0.1747E+01  0.7230E+02
     67.457  0.1626E+01  0.7274E+02
     67.733  0.1061E+01  0.7304E+02
     68.008  0.1246E+01  0.7338E+02
     68.284  0.1262E+01  0.7373E+02
     68.559  0.1538E+01  0.7415E+02
     68.835  0.1813E+01  0.7465E+02
     69.110  0.1052E+01  0.7494E+02
     69.386  0.1723E+01  0.7542E+02
     69.662  0.1756E+01  0.7590E+02
     69.937  0.1214E+01  0.7623E+02
     70.213  0.1660E+01  0.7669E+02
     70.488  0.1563E+01  0.7712E+02
     70.764  0.1750E+01  0.7760E+02
     71.039  0.8793E+00  0.7785E+02
     71.315  0.1129E+01  0.7816E+02
     71.590  0.1170E+01  0.7848E+02
     71.866  0.1020E+01  0.7876E+02
     72.142  0.1192E+01  0.7909E+02
     72.417  0.1142E+01  0.7940E+02
     72.693  0.8541E+00  0.7964E+02
     72.968  0.6022E+00  0.7981E+02
     73.244  0.3783E+00  0.7991E+02
     73.519  0.2429E+00  0.7998E+02
     73.795  0.6033E-01  0.7999E+02
     74.070  0.2450E-01  0.8000E+02
     74.346 -0.1594E-03  0.8000E+02
     74.621 -0.1056E-03  0.8000E+02
     74.897 -0.5787E-07  0.8000E+02
     75.173 -0.5580E-12  0.8000E+02
     75.448  0.0000E+00  0.8000E+02
     75.724  0.0000E+00  0.8000E+02
     75.999  0.0000E+00  0.8000E+02
     76.275  0.0000E+00  0.8000E+02
     76.550  0.0000E+00  0.8000E+02
     76.826  0.0000E+00  0.8000E+02
     77.101  0.0000E+00  0.8000E+02
     77.377  0.0000E+00  0.8000E+02
     77.653  0.0000E+00  0.8000E+02
