    2    2    1    1
  0.9060429E+01  0.2260100E-09  0.2260100E-09  0.4096310E-09  0.5000000E-15
  1.000000000000000E-004
  CAR 
 unknown system                          
     16     96     40
 
  0.0000000E+00  0.0000000E+00  0.0000000E+00  0.7513148E-03
    1       -1.255725   1.000000
    2        2.603846   1.000000
    3        5.513147   1.000000
    4        6.462365   1.000000
    5        6.462397   1.000000
    6        6.792480   1.000000
    7        6.792503   1.000000
    8        7.192533   1.000000
    9        8.103515   1.034625
   10        8.103527   1.034624
   11        9.227349  -0.000000
   12        9.227362  -0.000000
   13       16.374057   0.000000
   14       32.162062   0.000000
   15       33.209101   0.000000
   16       36.303302   0.000000
   17       40.065255   0.000000
   18       40.071825   0.000000
   19       40.071839   0.000000
   20       40.717968   0.000000
   21       40.718064   0.000000
   22       42.839387   0.000000
   23       42.839400   0.000000
   24       43.855088   0.000000
   25       46.943424   0.000000
   26       46.943434   0.000000
   27       47.733206   0.000000
   28       51.877213   0.000000
   29       51.877331   0.000000
   30       53.472552   0.000000
   31       53.472642   0.000000
   32       55.938687   0.000000
   33       63.342288   0.000000
   34       64.012333   0.000000
   35       64.482930   0.000000
   36       64.483225   0.000000
   37       65.435670   0.000000
   38       67.772777   0.000000
   39       67.772919   0.000000
   40       68.599037   0.000000
 
  0.9090909E-01 -0.1222163E-16  0.0000000E+00  0.4507889E-02
    1       -0.885307   1.000000
    2        2.894705   1.000000
    3        5.581901   1.000000
    4        6.339291   1.000000
    5        6.348603   1.000000
    6        6.644914   1.000000
    7        6.695508   1.000000
    8        7.008802   1.000000
    9        7.891914   1.003792
   10        7.971011   1.013782
   11        9.260071  -0.000000
   12       10.359614  -0.000000
   13       16.395291   0.000000
   14       32.191370   0.000000
   15       32.601730   0.000000
   16       35.010217   0.000000
   17       36.958392   0.000000
   18       38.423893   0.000000
   19       38.862205   0.000000
   20       39.890907   0.000000
   21       42.253761   0.000000
   22       43.253549   0.000000
   23       43.915249   0.000000
   24       44.508807   0.000000
   25       48.185564   0.000000
   26       48.488549   0.000000
   27       49.018998   0.000000
   28       49.295264   0.000000
   29       52.369717   0.000000
   30       54.995959   0.000000
   31       55.933121   0.000000
   32       57.775312   0.000000
   33       61.917395   0.000000
   34       63.476468   0.000000
   35       63.579048   0.000000
   36       63.860401   0.000000
   37       64.646946   0.000000
   38       68.315395   0.000000
   39       68.709544   0.000000
   40       69.558728   0.000000
 
  0.1818182E+00 -0.1720808E-16  0.0000000E+00  0.4507889E-02
    1        0.150833   1.000000
    2        3.563634   1.000000
    3        5.182480   1.000000
    4        5.502153   1.000000
    5        6.061647   1.000000
    6        6.732827   1.000000
    7        7.349543   1.000000
    8        7.401387   1.000000
    9        7.619367   1.000003
   10        7.659387   1.000010
   11        9.308087  -0.000000
   12       12.315773  -0.000000
   13       16.490233   0.000000
   14       28.569005   0.000000
   15       33.440123   0.000000
   16       33.680727   0.000000
   17       33.882086   0.000000
   18       34.131878   0.000000
   19       39.142037   0.000000
   20       39.921433   0.000000
   21       40.515769   0.000000
   22       41.367292   0.000000
   23       44.876955   0.000000
   24       45.720246   0.000000
   25       48.998890   0.000000
   26       49.744386   0.000000
   27       51.014228   0.000000
   28       53.348481   0.000000
   29       55.646417   0.000000
   30       57.541104   0.000000
   31       58.684589   0.000000
   32       60.268752   0.000000
   33       60.916132   0.000000
   34       61.599308   0.000000
   35       61.758970   0.000000
   36       62.844304   0.000000
   37       65.914693   0.000000
   38       68.973536   0.000000
   39       69.175338   0.000000
   40       69.604560   0.000000
 
  0.2727273E+00 -0.3727101E-16  0.0000000E+00  0.4507889E-02
    1        1.570441   1.000000
    2        3.799838   1.000000
    3        4.252638   1.000000
    4        5.535730   1.000000
    5        5.872991   1.000000
    6        6.794214   1.000000
    7        7.305188   1.000000
    8        7.648225   1.000007
    9        8.276889   0.732681
   10        8.474182   0.040569
   11        9.321960  -0.000000
   12       14.535836   0.000000
   13       16.717647   0.000000
   14       24.401859   0.000000
   15       29.858330   0.000000
   16       31.229958   0.000000
   17       32.011901   0.000000
   18       34.234421   0.000000
   19       37.622288   0.000000
   20       39.868174   0.000000
   21       40.695481   0.000000
   22       40.872739   0.000000
   23       42.289113   0.000000
   24       45.531867   0.000000
   25       52.641356   0.000000
   26       53.784694   0.000000
   27       54.762374   0.000000
   28       55.678426   0.000000
   29       56.052859   0.000000
   30       58.259137   0.000000
   31       59.412839   0.000000
   32       61.533711   0.000000
   33       61.545345   0.000000
   34       61.579943   0.000000
   35       63.099554   0.000000
   36       66.176537   0.000000
   37       66.346750   0.000000
   38       69.298607   0.000000
   39       69.546894   0.000000
   40       69.951321   0.000000
 
  0.3636364E+00 -0.2596876E-16  0.0000000E+00  0.4507889E-02
    1        2.693017   1.000000
    2        3.447594   1.000000
    3        3.628500   1.000000
    4        5.713478   1.000000
    5        6.261576   1.000000
    6        6.490849   1.000000
    7        7.009854   1.000000
    8        9.162155  -0.000000
    9        9.217254  -0.000000
   10        9.309485  -0.000000
   11        9.338005  -0.000000
   12       16.688414   0.000000
   13       16.898519   0.000000
   14       21.266636   0.000000
   15       26.392009   0.000000
   16       29.081026   0.000000
   17       29.201013   0.000000
   18       33.548737   0.000000
   19       36.653978   0.000000
   20       40.043981   0.000000
   21       40.244244   0.000000
   22       41.705687   0.000000
   23       41.796505   0.000000
   24       45.424303   0.000000
   25       52.613446   0.000000
   26       54.683599   0.000000
   27       55.841954   0.000000
   28       59.041303   0.000000
   29       59.150256   0.000000
   30       59.173623   0.000000
   31       60.403260   0.000000
   32       62.857796   0.000000
   33       62.859768   0.000000
   34       63.531049   0.000000
   35       64.889117   0.000000
   36       66.345475   0.000000
   37       69.224756   0.000000
   38       69.514859   0.000000
   39       69.946609   0.000000
   40       70.697110   0.000000
 
  0.4545455E+00 -0.2672352E-16  0.0000000E+00  0.4507889E-02
    1        2.952463   1.000000
    2        3.237359   1.000000
    3        3.318415   1.000000
    4        5.954317   1.000000
    5        6.404216   1.000000
    6        6.780839   1.000000
    7        6.846873   1.000000
    8        9.294142  -0.000000
    9        9.809343  -0.000000
   10        9.917284  -0.000000
   11       11.126539  -0.000000
   12       14.920635   0.000000
   13       19.125302   0.000000
   14       21.045405   0.000000
   15       23.626310   0.000000
   16       26.232566   0.000000
   17       28.057577   0.000000
   18       32.920808   0.000000
   19       36.316205   0.000000
   20       38.779017   0.000000
   21       40.091495   0.000000
   22       42.759119   0.000000
   23       44.321989   0.000000
   24       44.685389   0.000000
   25       49.243785   0.000000
   26       55.429483   0.000000
   27       56.395891   0.000000
   28       59.719373   0.000000
   29       60.979867   0.000000
   30       61.997205   0.000000
   31       63.227180   0.000000
   32       63.418256   0.000000
   33       63.439933   0.000000
   34       65.449493   0.000000
   35       66.582242   0.000000
   36       68.640328   0.000000
   37       68.886210   0.000000
   38       69.315017   0.000000
   39       72.001074   0.000000
   40       72.514735   0.000000
 
  0.9090909E-01  0.9090909E-01  0.0000000E+00  0.4507889E-02
    1       -0.177960   1.000000
    2        3.402246   1.000000
    3        5.492352   1.000000
    4        5.515079   1.000000
    5        6.322948   1.000000
    6        6.368429   1.000000
    7        7.174838   1.000000
    8        7.417039   1.000000
    9        7.482139   1.000000
   10        7.901289   1.004514
   11        9.255188  -0.000000
   12       11.773137  -0.000000
   13       16.458565   0.000000
   14       30.278313   0.000000
   15       31.899018   0.000000
   16       33.324586   0.000000
   17       35.410391   0.000000
   18       37.631335   0.000000
   19       37.689594   0.000000
   20       39.000193   0.000000
   21       39.652909   0.000000
   22       45.090084   0.000000
   23       45.787650   0.000000
   24       46.639579   0.000000
   25       47.044459   0.000000
   26       47.818541   0.000000
   27       48.103398   0.000000
   28       53.911994   0.000000
   29       56.050693   0.000000
   30       56.782597   0.000000
   31       56.788972   0.000000
   32       59.913429   0.000000
   33       60.518567   0.000000
   34       61.895491   0.000000
   35       62.942519   0.000000
   36       63.199882   0.000000
   37       64.611479   0.000000
   38       68.757863   0.000000
   39       69.471196   0.000000
   40       69.936585   0.000000
 
  0.1818182E+00  0.9090909E-01  0.0000000E+00  0.9015778E-02
    1        1.087997   1.000000
    2        4.016903   1.000000
    3        4.591957   1.000000
    4        5.229256   1.000000
    5        5.972348   1.000000
    6        6.847999   1.000000
    7        6.852594   1.000000
    8        7.585339   1.000001
    9        8.030948   1.026868
   10        8.367390   0.362636
   11        9.228351  -0.000000
   12       13.764382  -0.000000
   13       16.669736   0.000000
   14       26.536687   0.000000
   15       29.373396   0.000000
   16       31.746959   0.000000
   17       33.767760   0.000000
   18       35.075248   0.000000
   19       37.653650   0.000000
   20       38.248939   0.000000
   21       39.475658   0.000000
   22       44.371303   0.000000
   23       44.427988   0.000000
   24       46.359531   0.000000
   25       49.327372   0.000000
   26       49.981931   0.000000
   27       52.355555   0.000000
   28       56.278048   0.000000
   29       57.656385   0.000000
   30       58.503062   0.000000
   31       59.127873   0.000000
   32       60.929564   0.000000
   33       61.141603   0.000000
   34       61.863854   0.000000
   35       63.386929   0.000000
   36       63.447084   0.000000
   37       65.517751   0.000000
   38       68.801520   0.000000
   39       70.138195   0.000000
   40       70.513776   0.000000
 
  0.2727273E+00  0.9090909E-01  0.0000000E+00  0.9015778E-02
    1        2.483294   1.000000
    2        3.853248   1.000000
    3        3.910566   1.000000
    4        5.375927   1.000000
    5        6.106212   1.000000
    6        6.364539   1.000000
    7        7.148862   1.000000
    8        7.817826   1.000793
    9        8.962481  -0.000042
   10        9.194262  -0.000000
   11        9.516982  -0.000000
   12       16.033348   0.000000
   13       17.049855   0.000000
   14       22.648805   0.000000
   15       27.544425   0.000000
   16       28.203254   0.000000
   17       31.641603   0.000000
   18       32.803614   0.000000
   19       37.602356   0.000000
   20       38.988566   0.000000
   21       39.114348   0.000000
   22       43.386676   0.000000
   23       43.762932   0.000000
   24       47.073060   0.000000
   25       51.373483   0.000000
   26       53.746509   0.000000
   27       54.957066   0.000000
   28       54.976483   0.000000
   29       57.690292   0.000000
   30       59.623379   0.000000
   31       59.831603   0.000000
   32       62.593086   0.000000
   33       63.450199   0.000000
   34       63.948700   0.000000
   35       64.145326   0.000000
   36       65.811096   0.000000
   37       68.479501   0.000000
   38       69.578367   0.000000
   39       69.672373   0.000000
   40       70.847186   0.000000
 
  0.3636364E+00  0.9090909E-01  0.0000000E+00  0.9015778E-02
    1        3.167547   1.000000
    2        3.502064   1.000000
    3        3.508405   1.000000
    4        5.911451   1.000000
    5        6.037758   1.000000
    6        6.601522   1.000000
    7        6.793462   1.000000
    8        8.967618  -0.000036
    9        9.159741  -0.000000
   10        9.594718  -0.000000
   11       10.933517  -0.000000
   12       16.393810   0.000000
   13       18.411284   0.000000
   14       20.897402   0.000000
   15       25.061827   0.000000
   16       26.050570   0.000000
   17       28.265603   0.000000
   18       31.874178   0.000000
   19       36.703498   0.000000
   20       38.525005   0.000000
   21       40.843817   0.000000
   22       43.535158   0.000000
   23       44.318944   0.000000
   24       46.219251   0.000000
   25       51.265493   0.000000
   26       53.982088   0.000000
   27       55.430129   0.000000
   28       57.217373   0.000000
   29       59.412794   0.000000
   30       60.707486   0.000000
   31       61.950407   0.000000
   32       63.101912   0.000000
   33       63.563555   0.000000
   34       66.235931   0.000000
   35       67.231806   0.000000
   36       67.587851   0.000000
   37       68.205219   0.000000
   38       70.555169   0.000000
   39       70.656103   0.000000
   40       72.349965   0.000000
 
  0.4545455E+00  0.9090909E-01  0.0000000E+00  0.4507889E-02
    1        3.168527   1.000000
    2        3.367501   1.000000
    3        3.457039   1.000000
    4        5.923226   1.000000
    5        6.437916   1.000000
    6        6.658261   1.000000
    7        6.684079   1.000000
    8        9.145370  -0.000000
    9        9.632783  -0.000000
   10        9.668924  -0.000000
   11       12.279689  -0.000000
   12       14.707886   0.000000
   13       20.021625   0.000000
   14       21.505847   0.000000
   15       23.196958   0.000000
   16       25.036718   0.000000
   17       26.813058   0.000000
   18       31.538734   0.000000
   19       36.302213   0.000000
   20       38.371638   0.000000
   21       41.299467   0.000000
   22       44.137028   0.000000
   23       45.194509   0.000000
   24       45.691459   0.000000
   25       49.144860   0.000000
   26       54.953084   0.000000
   27       55.852607   0.000000
   28       57.551004   0.000000
   29       61.206039   0.000000
   30       61.265605   0.000000
   31       63.488648   0.000000
   32       63.579413   0.000000
   33       63.967927   0.000000
   34       65.413861   0.000000
   35       67.048720   0.000000
   36       69.756092   0.000000
   37       69.925565   0.000000
   38       70.143131   0.000000
   39       70.206022   0.000000
   40       72.476207   0.000000
 
  0.1818182E+00  0.1818182E+00  0.0000000E+00  0.4507889E-02
    1        2.442717   1.000000
    2        4.078359   1.000000
    3        4.538849   1.000000
    4        4.692133   1.000000
    5        6.066876   1.000000
    6        6.308710   1.000000
    7        7.126947   1.000000
    8        7.285189   1.000000
    9        8.930984  -0.000103
   10        9.060832  -0.000002
   11        9.605603  -0.000000
   12       15.766752   0.000000
   13       17.205232   0.000000
   14       24.400755   0.000000
   15       25.375129   0.000000
   16       29.733297   0.000000
   17       31.466945   0.000000
   18       34.150268   0.000000
   19       34.734092   0.000000
   20       38.431008   0.000000
   21       40.983245   0.000000
   22       45.513759   0.000000
   23       46.365524   0.000000
   24       47.906175   0.000000
   25       48.993205   0.000000
   26       51.068708   0.000000
   27       51.967786   0.000000
   28       56.244798   0.000000
   29       58.542126   0.000000
   30       58.651730   0.000000
   31       59.095566   0.000000
   32       62.881419   0.000000
   33       62.921236   0.000000
   34       64.624973   0.000000
   35       65.387024   0.000000
   36       66.517011   0.000000
   37       66.762997   0.000000
   38       68.829703   0.000000
   39       69.502326   0.000000
   40       72.186322   0.000000
 
  0.2727273E+00  0.1818182E+00  0.0000000E+00  0.9015778E-02
    1        3.649611   1.000000
    2        3.754841   1.000000
    3        4.128276   1.000000
    4        5.041140   1.000000
    5        5.975829   1.000000
    6        6.419637   1.000000
    7        6.786955   1.000000
    8        7.840490   1.001324
    9        8.918247  -0.000146
   10        9.495706  -0.000000
   11       11.133802  -0.000000
   12       17.898821   0.000000
   13       18.086803   0.000000
   14       21.326626   0.000000
   15       23.578688   0.000000
   16       27.036476   0.000000
   17       29.709766   0.000000
   18       30.439268   0.000000
   19       33.453550   0.000000
   20       40.799340   0.000000
   21       41.475288   0.000000
   22       45.341966   0.000000
   23       47.330793   0.000000
   24       49.269135   0.000000
   25       49.880026   0.000000
   26       51.892339   0.000000
   27       53.257876   0.000000
   28       54.348814   0.000000
   29       57.639364   0.000000
   30       59.248071   0.000000
   31       61.592673   0.000000
   32       63.093326   0.000000
   33       63.884120   0.000000
   34       66.176044   0.000000
   35       67.492415   0.000000
   36       67.525325   0.000000
   37       69.393224   0.000000
   38       69.916998   0.000000
   39       71.839591   0.000000
   40       73.192095   0.000000
 
  0.3636364E+00  0.1818182E+00  0.0000000E+00  0.9015778E-02
    1        3.613038   1.000000
    2        3.787250   1.000000
    3        4.025222   1.000000
    4        5.702241   1.000000
    5        5.910051   1.000000
    6        6.339055   1.000000
    7        6.745175   1.000000
    8        8.722674  -0.009623
    9        8.836923  -0.001095
   10        9.460349  -0.000000
   11       12.934769  -0.000000
   12       16.285813   0.000000
   13       20.450945   0.000000
   14       21.494595   0.000000
   15       22.594746   0.000000
   16       24.273839   0.000000
   17       27.314568   0.000000
   18       29.017577   0.000000
   19       32.783365   0.000000
   20       41.563902   0.000000
   21       43.177540   0.000000
   22       45.387843   0.000000
   23       46.406647   0.000000
   24       47.790569   0.000000
   25       51.766408   0.000000
   26       52.363993   0.000000
   27       53.853668   0.000000
   28       55.383582   0.000000
   29       59.319822   0.000000
   30       60.190319   0.000000
   31       61.050419   0.000000
   32       63.229561   0.000000
   33       63.739419   0.000000
   34       64.467469   0.000000
   35       68.268334   0.000000
   36       69.465195   0.000000
   37       70.337626   0.000000
   38       71.624945   0.000000
   39       71.645135   0.000000
   40       71.859645   0.000000
 
  0.2727273E+00  0.2727273E+00  0.0000000E+00  0.4507889E-02
    1        3.785242   1.000000
    2        4.343665   1.000000
    3        4.715720   1.000000
    4        4.755276   1.000000
    5        5.787801   1.000000
    6        6.275851   1.000000
    7        6.773336   1.000000
    8        8.153303   1.012365
    9        8.675755  -0.018261
   10        9.408338  -0.000000
   11       13.111955  -0.000000
   12       18.514211   0.000000
   13       19.206358   0.000000
   14       20.505090   0.000000
   15       22.289567   0.000000
   16       26.277233   0.000000
   17       26.602113   0.000000
   18       29.167015   0.000000
   19       30.023808   0.000000
   20       42.550587   0.000000
   21       43.523444   0.000000
   22       48.326389   0.000000
   23       48.954184   0.000000
   24       49.312675   0.000000
   25       49.732771   0.000000
   26       50.240104   0.000000
   27       53.242731   0.000000
   28       55.673801   0.000000
   29       55.876651   0.000000
   30       60.142750   0.000000
   31       60.345133   0.000000
   32       63.122596   0.000000
   33       63.851952   0.000000
   34       64.377187   0.000000
   35       68.493883   0.000000
   36       69.606330   0.000000
   37       69.762506   0.000000
   38       70.420195   0.000000
   39       71.487311   0.000000
   40       73.895041   0.000000
 
  0.3636364E+00  0.2727273E+00  0.0000000E+00  0.4507889E-02
    1        3.841173   1.000000
    2        4.451534   1.000000
    3        4.594760   1.000000
    4        5.167198   1.000000
    5        5.879795   1.000000
    6        5.882757   1.000000
    7        6.937556   1.000000
    8        8.582460  -0.035422
    9        8.617313  -0.031234
   10        8.998154  -0.000014
   11       15.001189   0.000000
   12       16.536862   0.000000
   13       18.817771   0.000000
   14       22.618186   0.000000
   15       23.266030   0.000000
   16       24.116645   0.000000
   17       26.176618   0.000000
   18       27.353850   0.000000
   19       29.410034   0.000000
   20       42.871759   0.000000
   21       46.236087   0.000000
   22       46.965191   0.000000
   23       48.392608   0.000000
   24       48.635492   0.000000
   25       50.159287   0.000000
   26       51.685196   0.000000
   27       55.053763   0.000000
   28       55.810181   0.000000
   29       56.032576   0.000000
   30       59.371568   0.000000
   31       60.260880   0.000000
   32       60.997361   0.000000
   33       63.698372   0.000000
   34       63.720381   0.000000
   35       68.036241   0.000000
   36       69.768035   0.000000
   37       70.657975   0.000000
   38       70.950794   0.000000
   39       72.192501   0.000000
   40       73.049503   0.000000
 
  0.0000000E+00  0.0000000E+00  0.9090909E-01  0.1502630E-02
    1       -1.171278   1.000000
    2        2.576841   1.000000
    3        5.491227   1.000000
    4        6.456562   1.000000
    5        6.456594   1.000000
    6        6.776301   1.000000
    7        6.776324   1.000000
    8        6.978260   1.000000
    9        8.139968   1.022013
   10        8.139980   1.022006
   11        9.215939  -0.000000
   12        9.215952  -0.000000
   13       16.740797   0.000000
   14       31.492064   0.000000
   15       33.379294   0.000000
   16       36.133340   0.000000
   17       40.095328   0.000000
   18       40.095344   0.000000
   19       40.510458   0.000000
   20       40.717110   0.000000
   21       40.717202   0.000000
   22       42.828397   0.000000
   23       42.828408   0.000000
   24       44.129590   0.000000
   25       46.662502   0.000000
   26       46.662511   0.000000
   27       47.954396   0.000000
   28       52.088318   0.000000
   29       52.088433   0.000000
   30       53.819789   0.000000
   31       53.819869   0.000000
   32       55.686664   0.000000
   33       62.212095   0.000000
   34       64.177444   0.000000
   35       64.333921   0.000000
   36       64.334204   0.000000
   37       66.585834   0.000000
   38       66.585941   0.000000
   39       66.653391   0.000000
   40       67.028302   0.000000
 
  0.9090909E-01 -0.1222163E-16  0.9090909E-01  0.9015778E-02
    1       -0.803118   1.000000
    2        2.871741   1.000000
    3        5.565908   1.000000
    4        6.189679   1.000000
    5        6.316745   1.000000
    6        6.669495   1.000000
    7        6.687053   1.000000
    8        6.990970   1.000000
    9        7.938782   1.008571
   10        8.013706   1.022897
   11        9.245136  -0.000000
   12       10.213116  -0.000000
   13       16.797627   0.000000
   14       31.743311   0.000000
   15       32.502913   0.000000
   16       34.948918   0.000000
   17       37.023755   0.000000
   18       37.944227   0.000000
   19       39.334392   0.000000
   20       40.228277   0.000000
   21       42.022312   0.000000
   22       43.386528   0.000000
   23       43.980469   0.000000
   24       44.675420   0.000000
   25       47.891211   0.000000
   26       48.240969   0.000000
   27       49.539932   0.000000
   28       49.724128   0.000000
   29       52.261316   0.000000
   30       55.133465   0.000000
   31       56.171595   0.000000
   32       57.584747   0.000000
   33       60.684958   0.000000
   34       63.180764   0.000000
   35       63.855820   0.000000
   36       64.105049   0.000000
   37       65.311790   0.000000
   38       67.165625   0.000000
   39       67.318051   0.000000
   40       68.616309   0.000000
 
  0.1818182E+00 -0.1720808E-16  0.9090909E-01  0.9015778E-02
    1        0.223643   1.000000
    2        3.553703   1.000000
    3        5.101520   1.000000
    4        5.517893   1.000000
    5        6.028203   1.000000
    6        6.666648   1.000000
    7        7.314681   1.000000
    8        7.511455   1.000000
    9        7.574802   1.000001
   10        7.758869   1.000182
   11        9.286832  -0.000000
   12       11.965422  -0.000000
   13       17.023193   0.000000
   14       28.622468   0.000000
   15       32.633980   0.000000
   16       33.605883   0.000000
   17       33.973191   0.000000
   18       34.300883   0.000000
   19       38.689565   0.000000
   20       40.333143   0.000000
   21       40.960708   0.000000
   22       41.122398   0.000000
   23       45.172103   0.000000
   24       46.142632   0.000000
   25       49.226074   0.000000
   26       49.668011   0.000000
   27       50.828954   0.000000
   28       53.404336   0.000000
   29       55.203247   0.000000
   30       57.841264   0.000000
   31       58.946086   0.000000
   32       59.415925   0.000000
   33       60.360243   0.000000
   34       61.432592   0.000000
   35       62.408613   0.000000
   36       63.354681   0.000000
   37       65.782765   0.000000
   38       67.755208   0.000000
   39       68.350777   0.000000
   40       70.585974   0.000000
 
  0.2727273E+00 -0.3727101E-16  0.9090909E-01  0.9015778E-02
    1        1.614900   1.000000
    2        3.794373   1.000000
    3        4.237981   1.000000
    4        5.514212   1.000000
    5        5.853297   1.000000
    6        6.821046   1.000000
    7        7.326998   1.000000
    8        7.691665   1.000027
    9        8.285759   0.699358
   10        8.460412   0.067026
   11        9.296479  -0.000000
   12       13.824588   0.000000
   13       17.553795   0.000000
   14       24.463506   0.000000
   15       29.515564   0.000000
   16       31.341304   0.000000
   17       32.171887   0.000000
   18       34.044623   0.000000
   19       37.252471   0.000000
   20       39.458297   0.000000
   21       39.841227   0.000000
   22       41.795441   0.000000
   23       43.138365   0.000000
   24       46.081673   0.000000
   25       52.721432   0.000000
   26       53.170659   0.000000
   27       54.188362   0.000000
   28       54.379244   0.000000
   29       57.713662   0.000000
   30       58.459104   0.000000
   31       59.648786   0.000000
   32       61.091565   0.000000
   33       61.447231   0.000000
   34       61.584049   0.000000
   35       63.487781   0.000000
   36       65.409550   0.000000
   37       66.730652   0.000000
   38       68.418933   0.000000
   39       69.058217   0.000000
   40       70.657184   0.000000
 
  0.3636364E+00 -0.2596876E-16  0.9090909E-01  0.9015778E-02
    1        2.664120   1.000000
    2        3.389067   1.000000
    3        3.758432   1.000000
    4        5.429785   1.000000
    5        6.421739   1.000000
    6        6.695374   1.000000
    7        7.047847   1.000000
    8        9.117541  -0.000000
    9        9.180262  -0.000000
   10        9.234825  -0.000000
   11        9.399852  -0.000000
   12       15.337530   0.000000
   13       18.283139   0.000000
   14       21.353010   0.000000
   15       26.083478   0.000000
   16       29.327029   0.000000
   17       29.392802   0.000000
   18       33.533027   0.000000
   19       36.538972   0.000000
   20       38.637423   0.000000
   21       40.042084   0.000000
   22       41.701033   0.000000
   23       43.205716   0.000000
   24       45.974377   0.000000
   25       51.553979   0.000000
   26       55.529833   0.000000
   27       55.788029   0.000000
   28       58.005373   0.000000
   29       58.387261   0.000000
   30       60.346442   0.000000
   31       60.811195   0.000000
   32       62.825034   0.000000
   33       62.896916   0.000000
   34       63.776102   0.000000
   35       64.889161   0.000000
   36       66.297835   0.000000
   37       68.090292   0.000000
   38       69.397526   0.000000
   39       70.437429   0.000000
   40       70.976786   0.000000
 
  0.4545455E+00 -0.2672352E-16  0.9090909E-01  0.9015778E-02
    1        2.905735   1.000000
    2        3.041814   1.000000
    3        3.615075   1.000000
    4        5.493731   1.000000
    5        6.619963   1.000000
    6        6.887970   1.000000
    7        7.134948   1.000000
    8        9.231643  -0.000000
    9        9.811408  -0.000000
   10        9.917547  -0.000000
   11       11.021634  -0.000000
   12       14.692139   0.000000
   13       19.106527   0.000000
   14       21.042790   0.000000
   15       23.762260   0.000000
   16       26.543133   0.000000
   17       28.192023   0.000000
   18       32.944551   0.000000
   19       36.265268   0.000000
   20       37.747982   0.000000
   21       41.137933   0.000000