 vasp.6.2.0 18Jan21 (build Mar 17 2021 09:06:54) complex                        
  
 executed on             LinuxIFC date 2021.09.09  12:00:20
 serial version


--------------------------------------------------------------------------------------------------------


 INCAR:
   ENCUT = 280.000000
   SIGMA = 0.200000
   EDIFF = 1.00e-06
   GGA = PE
   PREC = normal
   IBRION = 1
   ICHARG = 1
   ISIF = 2
   ISMEAR = 1
   KPAR = 1
   NBANDS = 40
   NSW = 0
   NCORE = 1
   LCHARG = .TRUE.

 POTCAR:    PAW_PBE Fe 06Sep2000                  
 POTCAR:    PAW_PBE Fe 06Sep2000                  
   SHA256 =  cd5a22d9368cc8b5cc476bea79732366149640da08ac9009b0e1b7fc627eea28 Fe/POTCAR             
   COPYR  = (c) Copyright 06Sep2000 Georg Kresse                                                    
   COPYR  = This file is part of the software VASP. Any use, copying, and all other rights are regul
   COPYR  = If you do not have a valid VASP license, you may not use, copy or distribute this file. 
   VRHFIN =Fe:  d7 s1                                                                               
   LEXCH  = PE                                                                                      
   EATOM  =   594.3153 eV,   43.6809 Ry                                                             
                                                                                                    
   TITEL  = PAW_PBE Fe 06Sep2000                                                                    
   LULTRA =        F    use ultrasoft PP ?                                                          
   IUNSCR =        1    unscreen: 0-lin 1-nonlin 2-no                                               
   RPACOR =    2.000    partial core radius                                                         
   POMASS =   55.847; ZVAL   =    8.000    mass and valenz                                          
   RCORE  =    2.300    outmost cutoff radius                                                       
   RWIGS  =    2.460; RWIGS  =    1.302    wigner-seitz radius (au A)                               
   ENMAX  =  267.882; ENMIN  =  200.911 eV                                                          
   RCLOC  =    1.701    cutoff for local pot                                                        
   LCOR   =        T    correct aug charges                                                         
   LPAW   =        T    paw PP                                                                      
   EAUG   =  511.368                                                                                
   DEXC   =    0.000                                                                                
   RMAX   =    2.356    core radius for proj-oper                                                   
   RAUG   =    1.300    factor for augmentation sphere                                              
   RDEP   =    2.442    radius for radial grids                                                     
   RDEPT  =    1.890    core radius for aug-charge                                                  
                                                                                                    
   Atomic configuration                                                                             
    9 entries                                                                                       
     n  l   j            E        occ.                                                              
     1  0  0.50     -6993.8440   2.0000                                                             
     2  0  0.50      -814.6047   2.0000                                                             
     2  1  1.50      -693.3689   6.0000                                                             
     3  0  0.50       -89.4732   2.0000                                                             
     3  1  1.50       -55.6373   6.0000                                                             
     3  2  2.50        -3.8151   7.0000                                                             
     4  0  0.50        -4.2551   1.0000                                                             
     4  1  1.50        -3.4015   0.0000                                                             
     4  3  2.50        -1.3606   0.0000                                                             
   Description                                                                                      
     l       E           TYP  RCUT    TYP  RCUT                                                     
     2     -3.8151135     23  2.300                                                                 
     2     -5.1756961     23  2.300                                                                 
     0     -4.2550963     23  2.300                                                                 
     0      7.2035603     23  2.300                                                                 
     1     -2.7211652     23  2.300                                                                 
     1     18.4316424     23  2.300                                                                 
  local pseudopotential read in
  partial core-charges read in
  partial kinetic energy density read in
  atomic valenz-charges read in
  non local Contribution for L=           2  read in
    real space projection operators read in
  non local Contribution for L=           2  read in
    real space projection operators read in
  non local Contribution for L=           0  read in
    real space projection operators read in
  non local Contribution for L=           0  read in
    real space projection operators read in
  non local Contribution for L=           1  read in
    real space projection operators read in
  non local Contribution for L=           1  read in
    real space projection operators read in
    PAW grid and wavefunctions read in
 
   number of l-projection  operators is LMAX  =           6
   number of lm-projection operators is LMMAX =          18
 
  PAW_PBE Fe 06Sep2000                  :
 energy of atom  1       EATOM= -594.3153
 kinetic energy error for atom=    0.0278 (will be added to EATOM!!)
 
 
 POSCAR: Fe
  positions in cartesian coordinates
  No initial velocities read in
 exchange correlation table for  LEXCH =        8
   RHO(1)=    0.500       N(1)  =     2000
   RHO(2)=  100.500       N(2)  =     4000
 


--------------------------------------------------------------------------------------------------------


 ion  position               nearest neighbor table
   1  0.000  0.000  0.000-   2 2.43   2 2.43   2 2.43   2 2.43   2 2.43   2 2.43
   2  0.333  0.667  0.500-   1 2.43   1 2.43   1 2.43   1 2.43   1 2.43   1 2.43
 
  LATTYP: Found a hexagonal cell.
 ALAT       =     2.2601000000
 C/A-ratio  =     1.8124463519
  
  Lattice vectors:
  
 A1 = (   2.2601000000,   0.0000000000,   0.0000000000)
 A2 = (  -1.1300500000,   1.9573040151,   0.0000000000)
 A3 = (   0.0000000000,   0.0000000000,   4.0963100000)


Analysis of symmetry for initial positions (statically):
=====================================================================
 Subroutine PRICEL returns:
 Original cell was already a primitive cell.
 

 Routine SETGRP: Setting up the symmetry group for a 
 hexagonal supercell.


 Subroutine GETGRP returns: Found 24 space group operations
 (whereof 12 operations were pure point group operations)
 out of a pool of 24 trial point group operations.


The static configuration has the point symmetry D_3h.
 The point group associated with its full space group is D_6h.


Analysis of symmetry for dynamics (positions and initial velocities):
=====================================================================
 Subroutine PRICEL returns:
 Original cell was already a primitive cell.
 

 Routine SETGRP: Setting up the symmetry group for a 
 hexagonal supercell.


 Subroutine GETGRP returns: Found 24 space group operations
 (whereof 12 operations were pure point group operations)
 out of a pool of 24 trial point group operations.


The dynamic configuration has the point symmetry D_3h.
 The point group associated with its full space group is D_6h.


 Subroutine INISYM returns: Found 24 space group operations
 (whereof 12 operations are pure point group operations),
 and found     1 'primitive' translations


----------------------------------------------------------------------------------------

                                     Primitive cell                                     

  volume of cell :      18.1209

  direct lattice vectors                    reciprocal lattice vectors
     2.260100000  0.000000000  0.000000000     0.442458298  0.255453418  0.000000000
    -1.130050000  1.957304015  0.000000000     0.000000000  0.510906835  0.000000000
     0.000000000  0.000000000  4.096310000     0.000000000  0.000000000  0.244122149

  length of vectors
     2.260100000  2.260100000  4.096310000     0.510906835  0.510906835  0.244122149

  position of ions in fractional coordinates (direct lattice)
     0.000000000  0.000000000  0.000000000
     0.333333333  0.666666667  0.500000000

  ion indices of the primitive-cell ions
   primitive index   ion index
                 1           1
                 2           2

----------------------------------------------------------------------------------------

 
 
 KPOINTS: KPOINTS created by Atomic Simulation Env

Automatic generation of k-mesh.
 Grid dimensions read from file:
 generate k-points for:   11   11   11

 Generating k-lattice:

  Cartesian coordinates                     Fractional coordinates (reciprocal lattice)
     0.040223482  0.023223038  0.000000000     0.090909091  0.000000000  0.000000000
     0.000000000  0.046446076  0.000000000     0.000000000  0.090909091  0.000000000
     0.000000000  0.000000000  0.022192923     0.000000000  0.000000000  0.090909091

  Length of vectors
     0.046446076  0.046446076  0.022192923

  Shift w.r.t. Gamma in fractional coordinates (k-lattice)
     0.000000000  0.000000000  0.000000000

 
 Subroutine IBZKPT returns following result:
 ===========================================
 
 Found     96 irreducible k-points:
 
 Following reciprocal coordinates:
            Coordinates               Weight
  0.000000  0.000000  0.000000      1.000000
  0.090909 -0.000000  0.000000      6.000000
  0.181818 -0.000000  0.000000      6.000000
  0.272727 -0.000000  0.000000      6.000000
  0.363636 -0.000000  0.000000      6.000000
  0.454545 -0.000000  0.000000      6.000000
  0.090909  0.090909  0.000000      6.000000
  0.181818  0.090909  0.000000     12.000000
  0.272727  0.090909  0.000000     12.000000
  0.363636  0.090909  0.000000     12.000000
  0.454545  0.090909  0.000000      6.000000
  0.181818  0.181818  0.000000      6.000000
  0.272727  0.181818  0.000000     12.000000
  0.363636  0.181818  0.000000     12.000000
  0.272727  0.272727  0.000000      6.000000
  0.363636  0.272727  0.000000      6.000000
  0.000000  0.000000  0.090909      2.000000
  0.090909 -0.000000  0.090909     12.000000
  0.181818 -0.000000  0.090909     12.000000
  0.272727 -0.000000  0.090909     12.000000
  0.363636 -0.000000  0.090909     12.000000
  0.454545 -0.000000  0.090909     12.000000
  0.090909  0.090909  0.090909     12.000000
  0.181818  0.090909  0.090909     24.000000
  0.272727  0.090909  0.090909     24.000000
  0.363636  0.090909  0.090909     24.000000
  0.454545  0.090909  0.090909     12.000000
  0.181818  0.181818  0.090909     12.000000
  0.272727  0.181818  0.090909     24.000000
  0.363636  0.181818  0.090909     24.000000
  0.272727  0.272727  0.090909     12.000000
  0.363636  0.272727  0.090909     12.000000
  0.000000  0.000000  0.181818      2.000000
  0.090909 -0.000000  0.181818     12.000000
  0.181818 -0.000000  0.181818     12.000000
  0.272727 -0.000000  0.181818     12.000000
  0.363636 -0.000000  0.181818     12.000000
  0.454545 -0.000000  0.181818     12.000000
  0.090909  0.090909  0.181818     12.000000
  0.181818  0.090909  0.181818     24.000000
  0.272727  0.090909  0.181818     24.000000
  0.363636  0.090909  0.181818     24.000000
  0.454545  0.090909  0.181818     12.000000
  0.181818  0.181818  0.181818     12.000000
  0.272727  0.181818  0.181818     24.000000
  0.363636  0.181818  0.181818     24.000000
  0.272727  0.272727  0.181818     12.000000
  0.363636  0.272727  0.181818     12.000000
  0.000000  0.000000  0.272727      2.000000
  0.090909 -0.000000  0.272727     12.000000
  0.181818 -0.000000  0.272727     12.000000
  0.272727 -0.000000  0.272727     12.000000
  0.363636 -0.000000  0.272727     12.000000
  0.454545 -0.000000  0.272727     12.000000
  0.090909  0.090909  0.272727     12.000000
  0.181818  0.090909  0.272727     24.000000
  0.272727  0.090909  0.272727     24.000000
  0.363636  0.090909  0.272727     24.000000
  0.454545  0.090909  0.272727     12.000000
  0.181818  0.181818  0.272727     12.000000
  0.272727  0.181818  0.272727     24.000000
  0.363636  0.181818  0.272727     24.000000
  0.272727  0.272727  0.272727     12.000000
  0.363636  0.272727  0.272727     12.000000
  0.000000  0.000000  0.363636      2.000000
  0.090909 -0.000000  0.363636     12.000000
  0.181818 -0.000000  0.363636     12.000000
  0.272727 -0.000000  0.363636     12.000000
  0.363636 -0.000000  0.363636     12.000000
  0.454545 -0.000000  0.363636     12.000000
  0.090909  0.090909  0.363636     12.000000
  0.181818  0.090909  0.363636     24.000000
  0.272727  0.090909  0.363636     24.000000
  0.363636  0.090909  0.363636     24.000000
  0.454545  0.090909  0.363636     12.000000
  0.181818  0.181818  0.363636     12.000000
  0.272727  0.181818  0.363636     24.000000
  0.363636  0.181818  0.363636     24.000000
  0.272727  0.272727  0.363636     12.000000
  0.363636  0.272727  0.363636     12.000000
  0.000000  0.000000  0.454545      2.000000
  0.090909 -0.000000  0.454545     12.000000
  0.181818 -0.000000  0.454545     12.000000
  0.272727 -0.000000  0.454545     12.000000
  0.363636 -0.000000  0.454545     12.000000
  0.454545 -0.000000  0.454545     12.000000
  0.090909  0.090909  0.454545     12.000000
  0.181818  0.090909  0.454545     24.000000
  0.272727  0.090909  0.454545     24.000000
  0.363636  0.090909  0.454545     24.000000
  0.454545  0.090909  0.454545     12.000000
  0.181818  0.181818  0.454545     12.000000
  0.272727  0.181818  0.454545     24.000000
  0.363636  0.181818  0.454545     24.000000
  0.272727  0.272727  0.454545     12.000000
  0.363636  0.272727  0.454545     12.000000
 
 Following cartesian coordinates:
            Coordinates               Weight
  0.000000  0.000000  0.000000      1.000000
  0.040223  0.023223  0.000000      6.000000
  0.080447  0.046446  0.000000      6.000000
  0.120670  0.069669  0.000000      6.000000
  0.160894  0.092892  0.000000      6.000000
  0.201117  0.116115  0.000000      6.000000
  0.040223  0.069669  0.000000      6.000000
  0.080447  0.092892  0.000000     12.000000
  0.120670  0.116115  0.000000     12.000000
  0.160894  0.139338  0.000000     12.000000
  0.201117  0.162561  0.000000      6.000000
  0.080447  0.139338  0.000000      6.000000
  0.120670  0.162561  0.000000     12.000000
  0.160894  0.185784  0.000000     12.000000
  0.120670  0.209007  0.000000      6.000000
  0.160894  0.232230  0.000000      6.000000
  0.000000  0.000000  0.022193      2.000000
  0.040223  0.023223  0.022193     12.000000
  0.080447  0.046446  0.022193     12.000000
  0.120670  0.069669  0.022193     12.000000
  0.160894  0.092892  0.022193     12.000000
  0.201117  0.116115  0.022193     12.000000
  0.040223  0.069669  0.022193     12.000000
  0.080447  0.092892  0.022193     24.000000
  0.120670  0.116115  0.022193     24.000000
  0.160894  0.139338  0.022193     24.000000
  0.201117  0.162561  0.022193     12.000000
  0.080447  0.139338  0.022193     12.000000
  0.120670  0.162561  0.022193     24.000000
  0.160894  0.185784  0.022193     24.000000
  0.120670  0.209007  0.022193     12.000000
  0.160894  0.232230  0.022193     12.000000
  0.000000  0.000000  0.044386      2.000000
  0.040223  0.023223  0.044386     12.000000
  0.080447  0.046446  0.044386     12.000000
  0.120670  0.069669  0.044386     12.000000
  0.160894  0.092892  0.044386     12.000000
  0.201117  0.116115  0.044386     12.000000
  0.040223  0.069669  0.044386     12.000000
  0.080447  0.092892  0.044386     24.000000
  0.120670  0.116115  0.044386     24.000000
  0.160894  0.139338  0.044386     24.000000
  0.201117  0.162561  0.044386     12.000000
  0.080447  0.139338  0.044386     12.000000
  0.120670  0.162561  0.044386     24.000000
  0.160894  0.185784  0.044386     24.000000
  0.120670  0.209007  0.044386     12.000000
  0.160894  0.232230  0.044386     12.000000
  0.000000  0.000000  0.066579      2.000000
  0.040223  0.023223  0.066579     12.000000
  0.080447  0.046446  0.066579     12.000000
  0.120670  0.069669  0.066579     12.000000
  0.160894  0.092892  0.066579     12.000000
  0.201117  0.116115  0.066579     12.000000
  0.040223  0.069669  0.066579     12.000000
  0.080447  0.092892  0.066579     24.000000
  0.120670  0.116115  0.066579     24.000000
  0.160894  0.139338  0.066579     24.000000
  0.201117  0.162561  0.066579     12.000000
  0.080447  0.139338  0.066579     12.000000
  0.120670  0.162561  0.066579     24.000000
  0.160894  0.185784  0.066579     24.000000
  0.120670  0.209007  0.066579     12.000000
  0.160894  0.232230  0.066579     12.000000
  0.000000  0.000000  0.088772      2.000000
  0.040223  0.023223  0.088772     12.000000
  0.080447  0.046446  0.088772     12.000000
  0.120670  0.069669  0.088772     12.000000
  0.160894  0.092892  0.088772     12.000000
  0.201117  0.116115  0.088772     12.000000
  0.040223  0.069669  0.088772     12.000000
  0.080447  0.092892  0.088772     24.000000
  0.120670  0.116115  0.088772     24.000000
  0.160894  0.139338  0.088772     24.000000
  0.201117  0.162561  0.088772     12.000000
  0.080447  0.139338  0.088772     12.000000
  0.120670  0.162561  0.088772     24.000000
  0.160894  0.185784  0.088772     24.000000
  0.120670  0.209007  0.088772     12.000000
  0.160894  0.232230  0.088772     12.000000
  0.000000  0.000000  0.110965      2.000000
  0.040223  0.023223  0.110965     12.000000
  0.080447  0.046446  0.110965     12.000000
  0.120670  0.069669  0.110965     12.000000
  0.160894  0.092892  0.110965     12.000000
  0.201117  0.116115  0.110965     12.000000
  0.040223  0.069669  0.110965     12.000000
  0.080447  0.092892  0.110965     24.000000
  0.120670  0.116115  0.110965     24.000000
  0.160894  0.139338  0.110965     24.000000
  0.201117  0.162561  0.110965     12.000000
  0.080447  0.139338  0.110965     12.000000
  0.120670  0.162561  0.110965     24.000000
  0.160894  0.185784  0.110965     24.000000
  0.120670  0.209007  0.110965     12.000000
  0.160894  0.232230  0.110965     12.000000
 


--------------------------------------------------------------------------------------------------------




 Dimension of arrays:
   k-points           NKPTS =     96   k-points in BZ     NKDIM =     96   number of bands    NBANDS=     40
   number of dos      NEDOS =    301   number of ions     NIONS =      2
   non local maximal  LDIM  =      6   non local SUM 2l+1 LMDIM =     18
   total plane-waves  NPLWV =   1800
   max r-space proj   IRMAX =      1   max aug-charges    IRDMAX=   3738
   dimension x,y,z NGX =    10 NGY =   10 NGZ =   18
   dimension x,y,z NGXF=    20 NGYF=   20 NGZF=   36
   support grid    NGXF=    20 NGYF=   20 NGZF=   36
   ions per type =               2
   NGX,Y,Z   is equivalent  to a cutoff of   7.36,  7.36,  7.31 a.u.
   NGXF,Y,Z  is equivalent  to a cutoff of  14.71, 14.71, 14.61 a.u.

 SYSTEM =  unknown system                          
 POSCAR =  Fe                                      

 Startparameter for this run:
   NWRITE =      2    write-flag & timer
   PREC   = normal    normal or accurate (medium, high low for compatibility)
   ISTART =      0    job   : 0-new  1-cont  2-samecut
   ICHARG =      1    charge: 1-file 2-atom 10-const
   ISPIN  =      1    spin polarized calculation?
   LNONCOLLINEAR =      F non collinear calculations
   LSORBIT =      F    spin-orbit coupling
   INIWAV =      1    electr: 0-lowe 1-rand  2-diag
   LASPH  =      F    aspherical Exc in radial PAW
   METAGGA=      F    non-selfconsistent MetaGGA calc.

 Electronic Relaxation 1
   ENCUT  =  280.0 eV  20.58 Ry    4.54 a.u.   3.08  3.08  5.59*2*pi/ulx,y,z
   ENINI  =  280.0     initial cutoff
   ENAUG  =  511.4 eV  augmentation charge cutoff
   NELM   =     60;   NELMIN=  2; NELMDL= -5     # of ELM steps 
   EDIFF  = 0.1E-05   stopping-criterion for ELM
   LREAL  =      F    real-space projection
   NLSPLINE    = F    spline interpolate recip. space projectors
   LCOMPAT=      F    compatible to vasp.4.4
   GGA_COMPAT  = T    GGA compatible to vasp.4.4-vasp.4.6
   LMAXPAW     = -100 max onsite density
   LMAXMIX     =    2 max onsite mixed and CHGCAR
   VOSKOWN=      0    Vosko Wilk Nusair interpolation
   ROPT   =    0.00000
 Ionic relaxation
   EDIFFG = 0.1E-04   stopping-criterion for IOM
   NSW    =      0    number of steps for IOM
   NBLOCK =      1;   KBLOCK =      1    inner block; outer block 
   IBRION =     -1    ionic relax: 0-MD 1-quasi-New 2-CG
   NFREE  =      0    steps in history (QN), initial steepest desc. (CG)
   ISIF   =      2    stress and relaxation
   IWAVPR =      0    prediction:  0-non 1-charg 2-wave 3-comb
   ISYM   =      2    0-nonsym 1-usesym 2-fastsym
   LCORR  =      T    Harris-Foulkes like correction to forces

   POTIM  = 0.5000    time-step for ionic-motion
   TEIN   =    0.0    initial temperature
   TEBEG  =    0.0;   TEEND  =   0.0 temperature during run
   SMASS  =  -3.00    Nose mass-parameter (am)
   estimated Nose-frequenzy (Omega)   =  0.10E-29 period in steps = 0.13E+47 mass=  -0.117E-27a.u.
   SCALEE = 1.0000    scale energy and forces
   NPACO  =    256;   APACO  = 16.0  distance and # of slots for P.C.
   PSTRESS=    0.0 pullay stress

  Mass of Ions in am
   POMASS =  55.85
  Ionic Valenz
   ZVAL   =   8.00
  Atomic Wigner-Seitz radii
   RWIGS  =  -1.00
  virtual crystal weights 
   VCA    =   1.00
   NELECT =      16.0000    total number of electrons
   NUPDOWN=      -1.0000    fix difference up-down

 DOS related values:
   EMIN   =  10.00;   EMAX   =-10.00  energy-range for DOS
   EFERMI =   0.00
   ISMEAR =     1;   SIGMA  =   0.20  broadening in eV -4-tet -1-fermi 0-gaus

 Electronic relaxation 2 (details)
   IALGO  =     38    algorithm
   LDIAG  =      T    sub-space diagonalisation (order eigenvalues)
   LSUBROT=      F    optimize rotation matrix (better conditioning)
   TURBO    =      0    0=normal 1=particle mesh
   IRESTART =      0    0=no restart 2=restart with 2 vectors
   NREBOOT  =      0    no. of reboots
   NMIN     =      0    reboot dimension
   EREF     =   0.00    reference energy to select bands
   IMIX   =      4    mixing-type and parameters
     AMIX     =   0.40;   BMIX     =  1.00
     AMIX_MAG =   1.60;   BMIX_MAG =  1.00
     AMIN     =   0.10
     WC   =   100.;   INIMIX=   1;  MIXPRE=   1;  MAXMIX= -45

 Intra band minimization:
   WEIMIN = 0.0000     energy-eigenvalue tresh-hold
   EBREAK =  0.62E-08  absolut break condition
   DEPER  =   0.30     relativ break condition  

   TIME   =   0.40     timestep for ELM

  volume/ion in A,a.u.               =       9.06        61.14
  Fermi-wavevector in a.u.,A,eV,Ry     =   1.570563  2.967933 33.561038  2.466667
  Thomas-Fermi vector in A             =   2.672277
 
 Write flags
   LWAVE        =      T    write WAVECAR
   LDOWNSAMPLE  =      F    k-point downsampling of WAVECAR
   LCHARG       =      T    write CHGCAR
   LVTOT        =      F    write LOCPOT, total local potential
   LVHAR        =      F    write LOCPOT, Hartree potential only
   LELF         =      F    write electronic localiz. function (ELF)
   LORBIT       =      0    0 simple, 1 ext, 2 COOP (PROOUT), +10 PAW based schemes


 Dipole corrections
   LMONO  =      F    monopole corrections only (constant potential shift)
   LDIPOL =      F    correct potential (dipole corrections)
   IDIPOL =      0    1-x, 2-y, 3-z, 4-all directions 
   EPSILON=  1.0000000 bulk dielectric constant

 Exchange correlation treatment:
   GGA     =    PE    GGA type
   LEXCH   =     8    internal setting for exchange type
   VOSKOWN=      0    Vosko Wilk Nusair interpolation
   LHFCALC =     F    Hartree Fock is set to
   LHFONE  =     F    Hartree Fock one center treatment
   AEXX    =    0.0000 exact exchange contribution

 Linear response parameters
   LEPSILON=     F    determine dielectric tensor
   LRPA    =     F    only Hartree local field effects (RPA)
   LNABLA  =     F    use nabla operator in PAW spheres
   LVEL    =     F    velocity operator in full k-point grid
   LINTERFAST=   F  fast interpolation
   KINTER  =     0    interpolate to denser k-point grid
   CSHIFT  =0.1000    complex shift for real part using Kramers Kronig
   OMEGAMAX=  -1.0    maximum frequency
   DEG_THRESHOLD= 0.2000000E-02 threshold for treating states as degnerate
   RTIME   =   -0.100 relaxation time in fs
  (WPLASMAI=    0.000 imaginary part of plasma frequency in eV, 0.658/RTIME)
   DFIELD  = 0.0000000 0.0000000 0.0000000 field for delta impulse in time
 
 Orbital magnetization related:
   ORBITALMAG=     F  switch on orbital magnetization
   LCHIMAG   =     F  perturbation theory with respect to B field
   DQ        =  0.001000  dq finite difference perturbation B field
   LLRAUG    =     F  two centre corrections for induced B field



--------------------------------------------------------------------------------------------------------


 Static calculation
 charge density and potential will be updated during run
 non-spin polarized calculation
 Variant of blocked Davidson
 Davidson routine will perform the subspace rotation
 perform sub-space diagonalisation
    after iterative eigenvector-optimisation
 modified Broyden-mixing scheme, WC =      100.0
 initial mixing is a Kerker type mixing with AMIX =  0.4000 and BMIX =      1.0000
 Hartree-type preconditioning will be used
 using additional bands           32
 reciprocal scheme for non local part
 use partial core corrections
 calculate Harris-corrections to forces 
   (improved forces if not selfconsistent)
 use gradient corrections 
 use of overlap-Matrix (Vanderbilt PP)
 Methfessel and Paxton  Order N= 1 SIGMA  =   0.20


--------------------------------------------------------------------------------------------------------


  energy-cutoff  :      280.00
  volume of cell :       18.12
      direct lattice vectors                 reciprocal lattice vectors
     2.260100000  0.000000000  0.000000000     0.442458298  0.255453418  0.000000000
    -1.130050000  1.957304015  0.000000000     0.000000000  0.510906835  0.000000000
     0.000000000  0.000000000  4.096310000     0.000000000  0.000000000  0.244122149

  length of vectors
     2.260100000  2.260100000  4.096310000     0.510906835  0.510906835  0.244122149


 
 k-points in units of 2pi/SCALE and weight: KPOINTS created by Atomic Simulation Env
   0.00000000  0.00000000  0.00000000       0.001
   0.04022348  0.02322304  0.00000000       0.005
   0.08044696  0.04644608  0.00000000       0.005
   0.12067044  0.06966911  0.00000000       0.005
   0.16089393  0.09289215  0.00000000       0.005
   0.20111741  0.11611519  0.00000000       0.005
   0.04022348  0.06966911  0.00000000       0.005
   0.08044696  0.09289215  0.00000000       0.009
   0.12067044  0.11611519  0.00000000       0.009
   0.16089393  0.13933823  0.00000000       0.009
   0.20111741  0.16256127  0.00000000       0.005
   0.08044696  0.13933823  0.00000000       0.005
   0.12067044  0.16256127  0.00000000       0.009
   0.16089393  0.18578430  0.00000000       0.009
   0.12067044  0.20900734  0.00000000       0.005
   0.16089393  0.23223038  0.00000000       0.005
   0.00000000  0.00000000  0.02219292       0.002
   0.04022348  0.02322304  0.02219292       0.009
   0.08044696  0.04644608  0.02219292       0.009
   0.12067044  0.06966911  0.02219292       0.009
   0.16089393  0.09289215  0.02219292       0.009
   0.20111741  0.11611519  0.02219292       0.009
   0.04022348  0.06966911  0.02219292       0.009
   0.08044696  0.09289215  0.02219292       0.018
   0.12067044  0.11611519  0.02219292       0.018
   0.16089393  0.13933823  0.02219292       0.018
   0.20111741  0.16256127  0.02219292       0.009
   0.08044696  0.13933823  0.02219292       0.009
   0.12067044  0.16256127  0.02219292       0.018
   0.16089393  0.18578430  0.02219292       0.018
   0.12067044  0.20900734  0.02219292       0.009
   0.16089393  0.23223038  0.02219292       0.009
   0.00000000  0.00000000  0.04438585       0.002
   0.04022348  0.02322304  0.04438585       0.009
   0.08044696  0.04644608  0.04438585       0.009
   0.12067044  0.06966911  0.04438585       0.009
   0.16089393  0.09289215  0.04438585       0.009
   0.20111741  0.11611519  0.04438585       0.009
   0.04022348  0.06966911  0.04438585       0.009
   0.08044696  0.09289215  0.04438585       0.018
   0.12067044  0.11611519  0.04438585       0.018
   0.16089393  0.13933823  0.04438585       0.018
   0.20111741  0.16256127  0.04438585       0.009
   0.08044696  0.13933823  0.04438585       0.009
   0.12067044  0.16256127  0.04438585       0.018
   0.16089393  0.18578430  0.04438585       0.018
   0.12067044  0.20900734  0.04438585       0.009
   0.16089393  0.23223038  0.04438585       0.009
   0.00000000  0.00000000  0.06657877       0.002
   0.04022348  0.02322304  0.06657877       0.009
   0.08044696  0.04644608  0.06657877       0.009
   0.12067044  0.06966911  0.06657877       0.009
   0.16089393  0.09289215  0.06657877       0.009
   0.20111741  0.11611519  0.06657877       0.009
   0.04022348  0.06966911  0.06657877       0.009
   0.08044696  0.09289215  0.06657877       0.018
   0.12067044  0.11611519  0.06657877       0.018
   0.16089393  0.13933823  0.06657877       0.018
   0.20111741  0.16256127  0.06657877       0.009
   0.08044696  0.13933823  0.06657877       0.009
   0.12067044  0.16256127  0.06657877       0.018
   0.16089393  0.18578430  0.06657877       0.018
   0.12067044  0.20900734  0.06657877       0.009
   0.16089393  0.23223038  0.06657877       0.009
   0.00000000  0.00000000  0.08877169       0.002
   0.04022348  0.02322304  0.08877169       0.009
   0.08044696  0.04644608  0.08877169       0.009
   0.12067044  0.06966911  0.08877169       0.009
   0.16089393  0.09289215  0.08877169       0.009
   0.20111741  0.11611519  0.08877169       0.009
   0.04022348  0.06966911  0.08877169       0.009
   0.08044696  0.09289215  0.08877169       0.018
   0.12067044  0.11611519  0.08877169       0.018
   0.16089393  0.13933823  0.08877169       0.018
   0.20111741  0.16256127  0.08877169       0.009
   0.08044696  0.13933823  0.08877169       0.009
   0.12067044  0.16256127  0.08877169       0.018
   0.16089393  0.18578430  0.08877169       0.018
   0.12067044  0.20900734  0.08877169       0.009
   0.16089393  0.23223038  0.08877169       0.009
   0.00000000  0.00000000  0.11096461       0.002
   0.04022348  0.02322304  0.11096461       0.009
   0.08044696  0.04644608  0.11096461       0.009
   0.12067044  0.06966911  0.11096461       0.009
   0.16089393  0.09289215  0.11096461       0.009
   0.20111741  0.11611519  0.11096461       0.009
   0.04022348  0.06966911  0.11096461       0.009
   0.08044696  0.09289215  0.11096461       0.018
   0.12067044  0.11611519  0.11096461       0.018
   0.16089393  0.13933823  0.11096461       0.018
   0.20111741  0.16256127  0.11096461       0.009
   0.08044696  0.13933823  0.11096461       0.009
   0.12067044  0.16256127  0.11096461       0.018
   0.16089393  0.18578430  0.11096461       0.018
   0.12067044  0.20900734  0.11096461       0.009
   0.16089393  0.23223038  0.11096461       0.009
 
 k-points in reciprocal lattice and weights: KPOINTS created by Atomic Simulation Env
   0.00000000  0.00000000  0.00000000       0.001
   0.09090909 -0.00000000  0.00000000       0.005
   0.18181818 -0.00000000  0.00000000       0.005
   0.27272727 -0.00000000  0.00000000       0.005
   0.36363636 -0.00000000  0.00000000       0.005
   0.45454545 -0.00000000  0.00000000       0.005
   0.09090909  0.09090909  0.00000000       0.005
   0.18181818  0.09090909  0.00000000       0.009
   0.27272727  0.09090909  0.00000000       0.009
   0.36363636  0.09090909  0.00000000       0.009
   0.45454545  0.09090909  0.00000000       0.005
   0.18181818  0.18181818  0.00000000       0.005
   0.27272727  0.18181818  0.00000000       0.009
   0.36363636  0.18181818  0.00000000       0.009
   0.27272727  0.27272727  0.00000000       0.005
   0.36363636  0.27272727  0.00000000       0.005
   0.00000000  0.00000000  0.09090909       0.002
   0.09090909 -0.00000000  0.09090909       0.009
   0.18181818 -0.00000000  0.09090909       0.009
   0.27272727 -0.00000000  0.09090909       0.009
   0.36363636 -0.00000000  0.09090909       0.009
   0.45454545 -0.00000000  0.09090909       0.009
   0.09090909  0.09090909  0.09090909       0.009
   0.18181818  0.09090909  0.09090909       0.018
   0.27272727  0.09090909  0.09090909       0.018
   0.36363636  0.09090909  0.09090909       0.018
   0.45454545  0.09090909  0.09090909       0.009
   0.18181818  0.18181818  0.09090909       0.009
   0.27272727  0.18181818  0.09090909       0.018
   0.36363636  0.18181818  0.09090909       0.018
   0.27272727  0.27272727  0.09090909       0.009
   0.36363636  0.27272727  0.09090909       0.009
   0.00000000  0.00000000  0.18181818       0.002
   0.09090909 -0.00000000  0.18181818       0.009
   0.18181818 -0.00000000  0.18181818       0.009
   0.27272727 -0.00000000  0.18181818       0.009
   0.36363636 -0.00000000  0.18181818       0.009
   0.45454545 -0.00000000  0.18181818       0.009
   0.09090909  0.09090909  0.18181818       0.009
   0.18181818  0.09090909  0.18181818       0.018
   0.27272727  0.09090909  0.18181818       0.018
   0.36363636  0.09090909  0.18181818       0.018
   0.45454545  0.09090909  0.18181818       0.009
   0.18181818  0.18181818  0.18181818       0.009
   0.27272727  0.18181818  0.18181818       0.018
   0.36363636  0.18181818  0.18181818       0.018
   0.27272727  0.27272727  0.18181818       0.009
   0.36363636  0.27272727  0.18181818       0.009
   0.00000000  0.00000000  0.27272727       0.002
   0.09090909 -0.00000000  0.27272727       0.009
   0.18181818 -0.00000000  0.27272727       0.009
   0.27272727 -0.00000000  0.27272727       0.009
   0.36363636 -0.00000000  0.27272727       0.009
   0.45454545 -0.00000000  0.27272727       0.009
   0.09090909  0.09090909  0.27272727       0.009
   0.18181818  0.09090909  0.27272727       0.018
   0.27272727  0.09090909  0.27272727       0.018
   0.36363636  0.09090909  0.27272727       0.018
   0.45454545  0.09090909  0.27272727       0.009
   0.18181818  0.18181818  0.27272727       0.009
   0.27272727  0.18181818  0.27272727       0.018
   0.36363636  0.18181818  0.27272727       0.018
   0.27272727  0.27272727  0.27272727       0.009
   0.36363636  0.27272727  0.27272727       0.009
   0.00000000  0.00000000  0.36363636       0.002
   0.09090909 -0.00000000  0.36363636       0.009
   0.18181818 -0.00000000  0.36363636       0.009
   0.27272727 -0.00000000  0.36363636       0.009
   0.36363636 -0.00000000  0.36363636       0.009
   0.45454545 -0.00000000  0.36363636       0.009
   0.09090909  0.09090909  0.36363636       0.009
   0.18181818  0.09090909  0.36363636       0.018
   0.27272727  0.09090909  0.36363636       0.018
   0.36363636  0.09090909  0.36363636       0.018
   0.45454545  0.09090909  0.36363636       0.009
   0.18181818  0.18181818  0.36363636       0.009
   0.27272727  0.18181818  0.36363636       0.018
   0.36363636  0.18181818  0.36363636       0.018
   0.27272727  0.27272727  0.36363636       0.009
   0.36363636  0.27272727  0.36363636       0.009
   0.00000000  0.00000000  0.45454545       0.002
   0.09090909 -0.00000000  0.45454545       0.009
   0.18181818 -0.00000000  0.45454545       0.009
   0.27272727 -0.00000000  0.45454545       0.009
   0.36363636 -0.00000000  0.45454545       0.009
   0.45454545 -0.00000000  0.45454545       0.009
   0.09090909  0.09090909  0.45454545       0.009
   0.18181818  0.09090909  0.45454545       0.018
   0.27272727  0.09090909  0.45454545       0.018
   0.36363636  0.09090909  0.45454545       0.018
   0.45454545  0.09090909  0.45454545       0.009
   0.18181818  0.18181818  0.45454545       0.009
   0.27272727  0.18181818  0.45454545       0.018
   0.36363636  0.18181818  0.45454545       0.018
   0.27272727  0.27272727  0.45454545       0.009
   0.36363636  0.27272727  0.45454545       0.009
 
 position of ions in fractional coordinates (direct lattice) 
   0.00000000  0.00000000  0.00000000
   0.33333333  0.66666667  0.50000000
 
 position of ions in cartesian coordinates  (Angst):
   0.00000000  0.00000000  0.00000000
   0.00000000  1.30486934  2.04815500
 


--------------------------------------------------------------------------------------------------------


 k-point   1 :   0.0000 0.0000 0.0000  plane waves:     185
 k-point   2 :   0.0909-0.0000 0.0000  plane waves:     189
 k-point   3 :   0.1818-0.0000 0.0000  plane waves:     193
 k-point   4 :   0.2727-0.0000 0.0000  plane waves:     193
 k-point   5 :   0.3636-0.0000 0.0000  plane waves:     194
 k-point   6 :   0.4545-0.0000 0.0000  plane waves:     196
 k-point   7 :   0.0909 0.0909 0.0000  plane waves:     193
 k-point   8 :   0.1818 0.0909 0.0000  plane waves:     195
 k-point   9 :   0.2727 0.0909 0.0000  plane waves:     191
 k-point  10 :   0.3636 0.0909 0.0000  plane waves:     191
 k-point  11 :   0.4545 0.0909 0.0000  plane waves:     191
 k-point  12 :   0.1818 0.1818 0.0000  plane waves:     189
 k-point  13 :   0.2727 0.1818 0.0000  plane waves:     192
 k-point  14 :   0.3636 0.1818 0.0000  plane waves:     199
 k-point  15 :   0.2727 0.2727 0.0000  plane waves:     199
 k-point  16 :   0.3636 0.2727 0.0000  plane waves:     199
 k-point  17 :   0.0000 0.0000 0.0909  plane waves:     185
 k-point  18 :   0.0909-0.0000 0.0909  plane waves:     191
 k-point  19 :   0.1818-0.0000 0.0909  plane waves:     192
 k-point  20 :   0.2727-0.0000 0.0909  plane waves:     195
 k-point  21 :   0.3636-0.0000 0.0909  plane waves:     194
 k-point  22 :   0.4545-0.0000 0.0909  plane waves:     198
 k-point  23 :   0.0909 0.0909 0.0909  plane waves:     192
 k-point  24 :   0.1818 0.0909 0.0909  plane waves:     192
 k-point  25 :   0.2727 0.0909 0.0909  plane waves:     189
 k-point  26 :   0.3636 0.0909 0.0909  plane waves:     191
 k-point  27 :   0.4545 0.0909 0.0909  plane waves:     195
 k-point  28 :   0.1818 0.1818 0.0909  plane waves:     191
 k-point  29 :   0.2727 0.1818 0.0909  plane waves:     192
 k-point  30 :   0.3636 0.1818 0.0909  plane waves:     198
 k-point  31 :   0.2727 0.2727 0.0909  plane waves:     198
 k-point  32 :   0.3636 0.2727 0.0909  plane waves:     196
 k-point  33 :   0.0000 0.0000 0.1818  plane waves:     185
 k-point  34 :   0.0909-0.0000 0.1818  plane waves:     187
 k-point  35 :   0.1818-0.0000 0.1818  plane waves:     191
 k-point  36 :   0.2727-0.0000 0.1818  plane waves:     195
 k-point  37 :   0.3636-0.0000 0.1818  plane waves:     195
 k-point  38 :   0.4545-0.0000 0.1818  plane waves:     194
 k-point  39 :   0.0909 0.0909 0.1818  plane waves:     188
 k-point  40 :   0.1818 0.0909 0.1818  plane waves:     189
 k-point  41 :   0.2727 0.0909 0.1818  plane waves:     189
 k-point  42 :   0.3636 0.0909 0.1818  plane waves:     197
 k-point  43 :   0.4545 0.0909 0.1818  plane waves:     194
 k-point  44 :   0.1818 0.1818 0.1818  plane waves:     193
 k-point  45 :   0.2727 0.1818 0.1818  plane waves:     195
 k-point  46 :   0.3636 0.1818 0.1818  plane waves:     196
 k-point  47 :   0.2727 0.2727 0.1818  plane waves:     197
 k-point  48 :   0.3636 0.2727 0.1818  plane waves:     198
 k-point  49 :   0.0000 0.0000 0.2727  plane waves:     185
 k-point  50 :   0.0909-0.0000 0.2727  plane waves:     184
 k-point  51 :   0.1818-0.0000 0.2727  plane waves:     186
 k-point  52 :   0.2727-0.0000 0.2727  plane waves:     188
 k-point  53 :   0.3636-0.0000 0.2727  plane waves:     192
 k-point  54 :   0.4545-0.0000 0.2727  plane waves:     197
 k-point  55 :   0.0909 0.0909 0.2727  plane waves:     188
 k-point  56 :   0.1818 0.0909 0.2727  plane waves:     191
 k-point  57 :   0.2727 0.0909 0.2727  plane waves:     193
 k-point  58 :   0.3636 0.0909 0.2727  plane waves:     195
 k-point  59 :   0.4545 0.0909 0.2727  plane waves:     193
 k-point  60 :   0.1818 0.1818 0.2727  plane waves:     190
 k-point  61 :   0.2727 0.1818 0.2727  plane waves:     196
 k-point  62 :   0.3636 0.1818 0.2727  plane waves:     196
 k-point  63 :   0.2727 0.2727 0.2727  plane waves:     195
 k-point  64 :   0.3636 0.2727 0.2727  plane waves:     198
 k-point  65 :   0.0000 0.0000 0.3636  plane waves:     191
 k-point  66 :   0.0909-0.0000 0.3636  plane waves:     184
 k-point  67 :   0.1818-0.0000 0.3636  plane waves:     185
 k-point  68 :   0.2727-0.0000 0.3636  plane waves:     186
 k-point  69 :   0.3636-0.0000 0.3636  plane waves:     192
 k-point  70 :   0.4545-0.0000 0.3636  plane waves:     193
 k-point  71 :   0.0909 0.0909 0.3636  plane waves:     186
 k-point  72 :   0.1818 0.0909 0.3636  plane waves:     187
 k-point  73 :   0.2727 0.0909 0.3636  plane waves:     191
 k-point  74 :   0.3636 0.0909 0.3636  plane waves:     193
 k-point  75 :   0.4545 0.0909 0.3636  plane waves:     192
 k-point  76 :   0.1818 0.1818 0.3636  plane waves:     194
 k-point  77 :   0.2727 0.1818 0.3636  plane waves:     197
 k-point  78 :   0.3636 0.1818 0.3636  plane waves:     197
 k-point  79 :   0.2727 0.2727 0.3636  plane waves:     197
 k-point  80 :   0.3636 0.2727 0.3636  plane waves:     200
 k-point  81 :   0.0000 0.0000 0.4545  plane waves:     192
 k-point  82 :   0.0909-0.0000 0.4545  plane waves:     185
 k-point  83 :   0.1818-0.0000 0.4545  plane waves:     186
 k-point  84 :   0.2727-0.0000 0.4545  plane waves:     188
 k-point  85 :   0.3636-0.0000 0.4545  plane waves:     193
 k-point  86 :   0.4545-0.0000 0.4545  plane waves:     194
 k-point  87 :   0.0909 0.0909 0.4545  plane waves:     185
 k-point  88 :   0.1818 0.0909 0.4545  plane waves:     189
 k-point  89 :   0.2727 0.0909 0.4545  plane waves:     193
 k-point  90 :   0.3636 0.0909 0.4545  plane waves:     189
 k-point  91 :   0.4545 0.0909 0.4545  plane waves:     194
 k-point  92 :   0.1818 0.1818 0.4545  plane waves:     196
 k-point  93 :   0.2727 0.1818 0.4545  plane waves:     194
 k-point  94 :   0.3636 0.1818 0.4545  plane waves:     196
 k-point  95 :   0.2727 0.2727 0.4545  plane waves:     201
 k-point  96 :   0.3636 0.2727 0.4545  plane waves:     204

 maximum number of plane-waves:       204
 maximum index in each direction: 
   IXMAX=    3   IYMAX=    3   IZMAX=    5
   IXMIN=   -3   IYMIN=   -3   IZMIN=   -6


 total amount of memory used by VASP MPI-rank0    48414. kBytes
=======================================================================

   base      :      30000. kBytes
   nonl-proj :       2826. kBytes
   grid      :        812. kBytes
   one-center:         31. kBytes
   wavefun   :      14745. kBytes
 
     INWAV:  cpu time    0.0000: real time    0.0000
 Broyden mixing: mesh for mixing (old mesh)
   NGX =  7   NGY =  7   NGZ = 11
  (NGX  = 20   NGY  = 20   NGZ  = 36)
  gives a total of    539 points

 initial charge density was supplied:
 charge density of overlapping atoms calculated
 number of electron      16.0000000 magnetization 
 keeping initial charge density in first step


--------------------------------------------------------------------------------------------------------


 Maximum index for augmentation-charges         3431 (set IRDMAX)


--------------------------------------------------------------------------------------------------------


 First call to EWALD:  gamma=   0.675
 Maximum number of real-space cells 4x 4x 2
 Maximum number of reciprocal cells 2x 2x 4

    FEWALD:  cpu time    0.0008: real time    0.0008


--------------------------------------- Iteration      1(   1)  ---------------------------------------


    POTLOK:  cpu time    0.0036: real time    0.0036
    SETDIJ:  cpu time    0.0022: real time    0.0022
     EDDAV:  cpu time    0.7722: real time    0.7921
       DOS:  cpu time    0.0054: real time    0.0054
    --------------------------------------------
      LOOP:  cpu time    0.7834: real time    0.8032

 eigenvalue-minimisations  :  9408
 total energy-change (2. order) : 0.6022042E+02  (-0.2472286E+03)
 number of electron      16.0000000 magnetization 
 augmentation part       16.0000000 magnetization 

 Free energy of the ion-electron system (eV)
  ---------------------------------------------------
  alpha Z        PSCENC =       152.56181769
  Ewald energy   TEWEN  =     -1274.62499761
  -Hartree energ DENC   =      -190.96788748
  -exchange      EXHF   =         0.00000000
  -V(xc)+E(xc)   XCENC  =         9.27844556
  PAW double counting   =      1109.69170683    -1125.09647265
  entropy T*S    EENTRO =        -0.00251293
  eigenvalues    EBANDS =       190.80540842
  atomic energy  EATOM  =      1188.57490811
  Solvation  Ediel_sol  =         0.00000000
  ---------------------------------------------------
  free energy    TOTEN  =        60.22041594 eV

  energy without entropy =       60.22292887  energy(sigma->0) =       60.22125358


--------------------------------------------------------------------------------------------------------




--------------------------------------- Iteration      1(   2)  ---------------------------------------


     EDDAV:  cpu time    0.6743: real time    0.6743
       DOS:  cpu time    0.0057: real time    0.0057
    --------------------------------------------
      LOOP:  cpu time    0.6800: real time    0.6800

 eigenvalue-minimisations  :  7944
 total energy-change (2. order) :-0.7442494E+02  (-0.6346741E+02)
 number of electron      16.0000000 magnetization 
 augmentation part       16.0000000 magnetization 

 Free energy of the ion-electron system (eV)
  ---------------------------------------------------
  alpha Z        PSCENC =       152.56181769
  Ewald energy   TEWEN  =     -1274.62499761
  -Hartree energ DENC   =      -190.96788748
  -exchange      EXHF   =         0.00000000
  -V(xc)+E(xc)   XCENC  =         9.27844556
  PAW double counting   =      1109.69170683    -1125.09647265
  entropy T*S    EENTRO =        -0.00250123
  eigenvalues    EBANDS =       116.38046134
  atomic energy  EATOM  =      1188.57490811
  Solvation  Ediel_sol  =         0.00000000
  ---------------------------------------------------
  free energy    TOTEN  =       -14.20451944 eV

  energy without entropy =      -14.20201821  energy(sigma->0) =      -14.20368569


--------------------------------------------------------------------------------------------------------




--------------------------------------- Iteration      1(   3)  ---------------------------------------


     EDDAV:  cpu time    0.7805: real time    0.7805
       DOS:  cpu time    0.0063: real time    0.0063
    --------------------------------------------
      LOOP:  cpu time    0.7868: real time    0.7868

 eigenvalue-minimisations  :  9632
 total energy-change (2. order) :-0.4145299E+01  (-0.3961124E+01)
 number of electron      16.0000000 magnetization 
 augmentation part       16.0000000 magnetization 

 Free energy of the ion-electron system (eV)
  ---------------------------------------------------
  alpha Z        PSCENC =       152.56181769
  Ewald energy   TEWEN  =     -1274.62499761
  -Hartree energ DENC   =      -190.96788748
  -exchange      EXHF   =         0.00000000
  -V(xc)+E(xc)   XCENC  =         9.27844556
  PAW double counting   =      1109.69170683    -1125.09647265
  entropy T*S    EENTRO =        -0.00001720
  eigenvalues    EBANDS =       112.23267791
  atomic energy  EATOM  =      1188.57490811
  Solvation  Ediel_sol  =         0.00000000
  ---------------------------------------------------
  free energy    TOTEN  =       -18.34981883 eV

  energy without entropy =      -18.34980163  energy(sigma->0) =      -18.34981310


--------------------------------------------------------------------------------------------------------




--------------------------------------- Iteration      1(   4)  ---------------------------------------


     EDDAV:  cpu time    0.7253: real time    0.7253
       DOS:  cpu time    0.0064: real time    0.0064
    --------------------------------------------
      LOOP:  cpu time    0.7317: real time    0.7317

 eigenvalue-minimisations  :  8840
 total energy-change (2. order) :-0.1504368E-01  (-0.1503676E-01)
 number of electron      16.0000000 magnetization 
 augmentation part       16.0000000 magnetization 

 Free energy of the ion-electron system (eV)
  ---------------------------------------------------
  alpha Z        PSCENC =       152.56181769
  Ewald energy   TEWEN  =     -1274.62499761
  -Hartree energ DENC   =      -190.96788748
  -exchange      EXHF   =         0.00000000
  -V(xc)+E(xc)   XCENC  =         9.27844556
  PAW double counting   =      1109.69170683    -1125.09647265
  entropy T*S    EENTRO =         0.00001901
  eigenvalues    EBANDS =       112.21759802
  atomic energy  EATOM  =      1188.57490811
  Solvation  Ediel_sol  =         0.00000000
  ---------------------------------------------------
  free energy    TOTEN  =       -18.36486251 eV

  energy without entropy =      -18.36488152  energy(sigma->0) =      -18.36486885


--------------------------------------------------------------------------------------------------------




--------------------------------------- Iteration      1(   5)  ---------------------------------------


     EDDAV:  cpu time    0.7891: real time    0.7891
       DOS:  cpu time    0.0063: real time    0.0063
    CHARGE:  cpu time    0.0197: real time    0.0197
    MIXING:  cpu time    0.0002: real time    0.0001
    --------------------------------------------
      LOOP:  cpu time    0.8152: real time    0.8152

 eigenvalue-minimisations  :  9368
 total energy-change (2. order) :-0.9913886E-05  (-0.9912978E-05)
 number of electron      15.9999939 magnetization 
 augmentation part        7.1955583 magnetization 

 Broyden mixing:
  rms(total) = 0.19376E+01    rms(broyden)= 0.19376E+01
  rms(prec ) = 0.29388E+01
  weight for this iteration     100.00

 Free energy of the ion-electron system (eV)
  ---------------------------------------------------
  alpha Z        PSCENC =       152.56181769
  Ewald energy   TEWEN  =     -1274.62499761
  -Hartree energ DENC   =      -190.96788748
  -exchange      EXHF   =         0.00000000
  -V(xc)+E(xc)   XCENC  =         9.27844556
  PAW double counting   =      1109.69170683    -1125.09647265
  entropy T*S    EENTRO =         0.00001903
  eigenvalues    EBANDS =       112.21758809
  atomic energy  EATOM  =      1188.57490811
  Solvation  Ediel_sol  =         0.00000000
  ---------------------------------------------------
  free energy    TOTEN  =       -18.36487242 eV

  energy without entropy =      -18.36489145  energy(sigma->0) =      -18.36487877


--------------------------------------------------------------------------------------------------------




--------------------------------------- Iteration      1(   6)  ---------------------------------------


    POTLOK:  cpu time    0.0033: real time    0.0033
    SETDIJ:  cpu time    0.0021: real time    0.0021
     EDDAV:  cpu time    0.8987: real time    0.8987
       DOS:  cpu time    0.0066: real time    0.0066
    CHARGE:  cpu time    0.0194: real time    0.0194
    MIXING:  cpu time    0.0002: real time    0.0002
    --------------------------------------------
      LOOP:  cpu time    0.9303: real time    0.9304

 eigenvalue-minimisations  : 11304
 total energy-change (2. order) : 0.2585367E+01  (-0.1422378E+00)
 number of electron      15.9999927 magnetization 
 augmentation part        8.3472973 magnetization 

 Broyden mixing:
  rms(total) = 0.16626E+00    rms(broyden)= 0.16617E+00
  rms(prec ) = 0.21144E+00
  weight for this iteration     100.00

 eigenvalues of (default mixing * dielectric matrix)
  average eigenvalue GAMMA=   1.0257
  1.0257

 Free energy of the ion-electron system (eV)
  ---------------------------------------------------
  alpha Z        PSCENC =       152.56181769
  Ewald energy   TEWEN  =     -1274.62499761
  -Hartree energ DENC   =      -160.40032290
  -exchange      EXHF   =         0.00000000
  -V(xc)+E(xc)   XCENC  =         7.77691216
  PAW double counting   =      1330.98275299    -1343.25505947
  entropy T*S    EENTRO =         0.00178159
  eigenvalues    EBANDS =        82.60270225
  atomic energy  EATOM  =      1188.57490811
  Solvation  Ediel_sol  =         0.00000000
  ---------------------------------------------------
  free energy    TOTEN  =       -15.77950518 eV

  energy without entropy =      -15.78128677  energy(sigma->0) =      -15.78009904


--------------------------------------------------------------------------------------------------------




--------------------------------------- Iteration      1(   7)  ---------------------------------------


    POTLOK:  cpu time    0.0034: real time    0.0034
    SETDIJ:  cpu time    0.0021: real time    0.0021
     EDDAV:  cpu time    0.7875: real time    0.7875
       DOS:  cpu time    0.0063: real time    0.0063
    CHARGE:  cpu time    0.0191: real time    0.0191
    MIXING:  cpu time    0.0002: real time    0.0002
    --------------------------------------------
      LOOP:  cpu time    0.8186: real time    0.8186

 eigenvalue-minimisations  :  9704
 total energy-change (2. order) : 0.1208451E+00  (-0.6235315E-02)
 number of electron      15.9999929 magnetization 
 augmentation part        8.1803457 magnetization 

 Broyden mixing:
  rms(total) = 0.15745E+00    rms(broyden)= 0.15745E+00
  rms(prec ) = 0.22326E+00
  weight for this iteration     100.00

 eigenvalues of (default mixing * dielectric matrix)
  average eigenvalue GAMMA=   1.1908
  0.8272  1.5544

 Free energy of the ion-electron system (eV)
  ---------------------------------------------------
  alpha Z        PSCENC =       152.56181769
  Ewald energy   TEWEN  =     -1274.62499761
  -Hartree energ DENC   =      -161.77627687
  -exchange      EXHF   =         0.00000000
  -V(xc)+E(xc)   XCENC  =         7.87202063
  PAW double counting   =      1442.03504979    -1457.69998337
  entropy T*S    EENTRO =         0.00155474
  eigenvalues    EBANDS =        87.39724676
  atomic energy  EATOM  =      1188.57490811
  Solvation  Ediel_sol  =         0.00000000
  ---------------------------------------------------
  free energy    TOTEN  =       -15.65866011 eV

  energy without entropy =      -15.66021485  energy(sigma->0) =      -15.65917835


--------------------------------------------------------------------------------------------------------




--------------------------------------- Iteration      1(   8)  ---------------------------------------


    POTLOK:  cpu time    0.0034: real time    0.0034
    SETDIJ:  cpu time    0.0021: real time    0.0021
     EDDAV:  cpu time    0.8224: real time    0.8224
       DOS:  cpu time    0.0064: real time    0.0064
    CHARGE:  cpu time    0.0192: real time    0.0192
    MIXING:  cpu time    0.0002: real time    0.0002
    --------------------------------------------
      LOOP:  cpu time    0.8537: real time    0.8537

 eigenvalue-minimisations  : 10376
 total energy-change (2. order) : 0.3603648E-01  (-0.2463049E-03)
 number of electron      15.9999928 magnetization 
 augmentation part        8.2060856 magnetization 

 Broyden mixing:
  rms(total) = 0.55667E-01    rms(broyden)= 0.55666E-01
  rms(prec ) = 0.75474E-01
  weight for this iteration     100.00

 eigenvalues of (default mixing * dielectric matrix)
  average eigenvalue GAMMA=   1.5297
  2.6680  1.0709  0.8503

 Free energy of the ion-electron system (eV)
  ---------------------------------------------------
  alpha Z        PSCENC =       152.56181769
  Ewald energy   TEWEN  =     -1274.62499761
  -Hartree energ DENC   =      -159.25211159
  -exchange      EXHF   =         0.00000000
  -V(xc)+E(xc)   XCENC  =         7.77045934
  PAW double counting   =      1554.83988996    -1572.49250780
  entropy T*S    EENTRO =         0.00164125
  eigenvalues    EBANDS =        86.99827701
  atomic energy  EATOM  =      1188.57490811
  Solvation  Ediel_sol  =         0.00000000
  ---------------------------------------------------
  free energy    TOTEN  =       -15.62262363 eV

  energy without entropy =      -15.62426488  energy(sigma->0) =      -15.62317071


--------------------------------------------------------------------------------------------------------




--------------------------------------- Iteration      1(   9)  ---------------------------------------


    POTLOK:  cpu time    0.0034: real time    0.0034
    SETDIJ:  cpu time    0.0021: real time    0.0021
     EDDAV:  cpu time    0.8356: real time    0.8356
       DOS:  cpu time    0.0066: real time    0.0066
    CHARGE:  cpu time    0.0214: real time    0.0214
    MIXING:  cpu time    0.0002: real time    0.0002
    --------------------------------------------
      LOOP:  cpu time    0.8693: real time    0.8693

 eigenvalue-minimisations  : 10544
 total energy-change (2. order) : 0.6204964E-02  (-0.7068385E-04)
 number of electron      15.9999928 magnetization 
 augmentation part        8.2143777 magnetization 

 Broyden mixing:
  rms(total) = 0.56684E-02    rms(broyden)= 0.56672E-02
  rms(prec ) = 0.73859E-02
  weight for this iteration     100.00

 eigenvalues of (default mixing * dielectric matrix)
  average eigenvalue GAMMA=   1.5631
  2.6998  0.8569  0.9766  1.7192

 Free energy of the ion-electron system (eV)
  ---------------------------------------------------
  alpha Z        PSCENC =       152.56181769
  Ewald energy   TEWEN  =     -1274.62499761
  -Hartree energ DENC   =      -157.79909567
  -exchange      EXHF   =         0.00000000
  -V(xc)+E(xc)   XCENC  =         7.71559168
  PAW double counting   =      1636.87517401    -1655.88963902
  entropy T*S    EENTRO =         0.00166020
  eigenvalues    EBANDS =        86.96816193
  atomic energy  EATOM  =      1188.57490811
  Solvation  Ediel_sol  =         0.00000000
  ---------------------------------------------------
  free energy    TOTEN  =       -15.61641866 eV

  energy without entropy =      -15.61807887  energy(sigma->0) =      -15.61697207


--------------------------------------------------------------------------------------------------------




--------------------------------------- Iteration      1(  10)  ---------------------------------------


    POTLOK:  cpu time    0.0034: real time    0.0034
    SETDIJ:  cpu time    0.0021: real time    0.0021
     EDDAV:  cpu time    0.7008: real time    0.7008
       DOS:  cpu time    0.0065: real time    0.0065
    CHARGE:  cpu time    0.0196: real time    0.0196
    MIXING:  cpu time    0.0002: real time    0.0002
    --------------------------------------------
      LOOP:  cpu time    0.7326: real time    0.7326

 eigenvalue-minimisations  :  8552
 total energy-change (2. order) :-0.2301485E-04  (-0.2110823E-05)
 number of electron      15.9999928 magnetization 
 augmentation part        8.2142862 magnetization 

 Broyden mixing:
  rms(total) = 0.27901E-02    rms(broyden)= 0.27885E-02
  rms(prec ) = 0.39276E-02
  weight for this iteration     100.00

 eigenvalues of (default mixing * dielectric matrix)
  average eigenvalue GAMMA=   1.6497
  2.6203  2.4392  0.8543  1.0047  1.3300

 Free energy of the ion-electron system (eV)
  ---------------------------------------------------
  alpha Z        PSCENC =       152.56181769
  Ewald energy   TEWEN  =     -1274.62499761
  -Hartree energ DENC   =      -157.85058996
  -exchange      EXHF   =         0.00000000
  -V(xc)+E(xc)   XCENC  =         7.71886011
  PAW double counting   =      1639.57811439    -1658.53730739
  entropy T*S    EENTRO =         0.00166145
  eigenvalues    EBANDS =        86.96109153
  atomic energy  EATOM  =      1188.57490811
  Solvation  Ediel_sol  =         0.00000000
  ---------------------------------------------------
  free energy    TOTEN  =       -15.61644168 eV

  energy without entropy =      -15.61810313  energy(sigma->0) =      -15.61699550


--------------------------------------------------------------------------------------------------------




--------------------------------------- Iteration      1(  11)  ---------------------------------------


    POTLOK:  cpu time    0.0034: real time    0.0034
    SETDIJ:  cpu time    0.0022: real time    0.0022
     EDDAV:  cpu time    0.7224: real time    0.7224
       DOS:  cpu time    0.0055: real time    0.0055
    CHARGE:  cpu time    0.0191: real time    0.0191
    MIXING:  cpu time    0.0002: real time    0.0002
    --------------------------------------------
      LOOP:  cpu time    0.7529: real time    0.7529

 eigenvalue-minimisations  :  8784
 total energy-change (2. order) : 0.1914147E-04  (-0.3908868E-07)
 number of electron      15.9999928 magnetization 
 augmentation part        8.2139964 magnetization 

 Broyden mixing:
  rms(total) = 0.24328E-03    rms(broyden)= 0.24324E-03
  rms(prec ) = 0.41641E-03
  weight for this iteration     100.00

 eigenvalues of (default mixing * dielectric matrix)
  average eigenvalue GAMMA=   1.5686
  2.5810  2.5810  0.8543  0.9989  0.9989  1.3978

 Free energy of the ion-electron system (eV)
  ---------------------------------------------------
  alpha Z        PSCENC =       152.56181769
  Ewald energy   TEWEN  =     -1274.62499761
  -Hartree energ DENC   =      -157.92218849
  -exchange      EXHF   =         0.00000000
  -V(xc)+E(xc)   XCENC  =         7.72215812
  PAW double counting   =      1638.32533508    -1657.21373650
  entropy T*S    EENTRO =         0.00166081
  eigenvalues    EBANDS =        86.95862025
  atomic energy  EATOM  =      1188.57490811
  Solvation  Ediel_sol  =         0.00000000
  ---------------------------------------------------
  free energy    TOTEN  =       -15.61642254 eV

  energy without entropy =      -15.61808334  energy(sigma->0) =      -15.61697614


--------------------------------------------------------------------------------------------------------




--------------------------------------- Iteration      1(  12)  ---------------------------------------


    POTLOK:  cpu time    0.0034: real time    0.0034
    SETDIJ:  cpu time    0.0021: real time    0.0021
     EDDAV:  cpu time    0.5892: real time    0.5892
       DOS:  cpu time    0.0065: real time    0.0065
    CHARGE:  cpu time    0.0192: real time    0.0192
    MIXING:  cpu time    0.0003: real time    0.0003
    --------------------------------------------
      LOOP:  cpu time    0.6206: real time    0.6206

 eigenvalue-minimisations  :  6480
 total energy-change (2. order) : 0.1827490E-05  (-0.8720947E-08)
 number of electron      15.9999928 magnetization 
 augmentation part        8.2139474 magnetization 

 Broyden mixing:
  rms(total) = 0.12114E-03    rms(broyden)= 0.12109E-03
  rms(prec ) = 0.13181E-03
  weight for this iteration     100.00

 eigenvalues of (default mixing * dielectric matrix)
  average eigenvalue GAMMA=   1.6115
  2.5710  2.4999  1.9803  0.8544  1.0020  1.0153  1.3578

 Free energy of the ion-electron system (eV)
  ---------------------------------------------------
  alpha Z        PSCENC =       152.56181769
  Ewald energy   TEWEN  =     -1274.62499761
  -Hartree energ DENC   =      -157.93309278
  -exchange      EXHF   =         0.00000000
  -V(xc)+E(xc)   XCENC  =         7.72264460
  PAW double counting   =      1638.14580593    -1657.02379566
  entropy T*S    EENTRO =         0.00166069
  eigenvalues    EBANDS =        86.95862831
  atomic energy  EATOM  =      1188.57490811
  Solvation  Ediel_sol  =         0.00000000
  ---------------------------------------------------
  free energy    TOTEN  =       -15.61642071 eV

  energy without entropy =      -15.61808140  energy(sigma->0) =      -15.61697427


--------------------------------------------------------------------------------------------------------




--------------------------------------- Iteration      1(  13)  ---------------------------------------


    POTLOK:  cpu time    0.0033: real time    0.0033
    SETDIJ:  cpu time    0.0021: real time    0.0021
     EDDAV:  cpu time    0.5033: real time    0.5033
       DOS:  cpu time    0.0064: real time    0.0064
    --------------------------------------------
      LOOP:  cpu time    0.5152: real time    0.5152

 eigenvalue-minimisations  :  5040
 total energy-change (2. order) :-0.4052015E-06  (-0.8041911E-09)
 number of electron      15.9999928 magnetization 
 augmentation part        8.2139474 magnetization 

 Free energy of the ion-electron system (eV)
  ---------------------------------------------------
  alpha Z        PSCENC =       152.56181769
  Ewald energy   TEWEN  =     -1274.62499761
  -Hartree energ DENC   =      -157.93155047
  -exchange      EXHF   =         0.00000000
  -V(xc)+E(xc)   XCENC  =         7.72256772
  PAW double counting   =      1638.22356547    -1657.10340114
  entropy T*S    EENTRO =         0.00166067
  eigenvalues    EBANDS =        86.95900842
  atomic energy  EATOM  =      1188.57490811
  Solvation  Ediel_sol  =         0.00000000
  ---------------------------------------------------
  free energy    TOTEN  =       -15.61642112 eV

  energy without entropy =      -15.61808179  energy(sigma->0) =      -15.61697467


--------------------------------------------------------------------------------------------------------




 average (electrostatic) potential at core
  the test charge radii are     1.0103
  (the norm of the test charge is              1.0000)
       1 -41.3354       2 -41.3355
 
 
 
 E-fermi :   8.3344     XC(G=0): -14.4847     alpha+bet :-17.1079

 Fermi energy:         8.3344352908

 k-point     1 :       0.0000    0.0000    0.0000
  band No.  band energies     occupation 
      1      -1.2557      2.00000
      2       2.6038      2.00000
      3       5.5131      2.00000
      4       6.4624      2.00000
      5       6.4624      2.00000
      6       6.7925      2.00000
      7       6.7925      2.00000
      8       7.1925      2.00000
      9       8.1035      2.06925
     10       8.1035      2.06925
     11       9.2273     -0.00000
     12       9.2274     -0.00000
     13      16.3741      0.00000
     14      32.1621      0.00000
     15      33.2091      0.00000
     16      36.3033      0.00000
     17      40.0653      0.00000
     18      40.0718      0.00000
     19      40.0718      0.00000
     20      40.7180      0.00000
     21      40.7181      0.00000
     22      42.8394      0.00000
     23      42.8394      0.00000
     24      43.8551      0.00000
     25      46.9434      0.00000
     26      46.9434      0.00000
     27      47.7332      0.00000
     28      51.8772      0.00000
     29      51.8773      0.00000
     30      53.4726      0.00000
     31      53.4726      0.00000
     32      55.9387      0.00000
     33      63.3423      0.00000
     34      64.0123      0.00000
     35      64.4829      0.00000
     36      64.4832      0.00000
     37      65.4357      0.00000
     38      67.7728      0.00000
     39      67.7729      0.00000
     40      68.5990      0.00000

 k-point     2 :       0.0909   -0.0000    0.0000
  band No.  band energies     occupation 
      1      -0.8853      2.00000
      2       2.8947      2.00000
      3       5.5819      2.00000
      4       6.3393      2.00000
      5       6.3486      2.00000
      6       6.6449      2.00000
      7       6.6955      2.00000
      8       7.0088      2.00000
      9       7.8919      2.00758
     10       7.9710      2.02756
     11       9.2601     -0.00000
     12      10.3596     -0.00000
     13      16.3953      0.00000
     14      32.1914      0.00000
     15      32.6017      0.00000
     16      35.0102      0.00000
     17      36.9584      0.00000
     18      38.4239      0.00000
     19      38.8622      0.00000
     20      39.8909      0.00000
     21      42.2538      0.00000
     22      43.2535      0.00000
     23      43.9152      0.00000
     24      44.5088      0.00000
     25      48.1856      0.00000
     26      48.4885      0.00000
     27      49.0190      0.00000
     28      49.2953      0.00000
     29      52.3697      0.00000
     30      54.9960      0.00000
     31      55.9331      0.00000
     32      57.7753      0.00000
     33      61.9174      0.00000
     34      63.4765      0.00000
     35      63.5790      0.00000
     36      63.8604      0.00000
     37      64.6469      0.00000
     38      68.3154      0.00000
     39      68.7095      0.00000
     40      69.5587      0.00000

 k-point     3 :       0.1818   -0.0000    0.0000
  band No.  band energies     occupation 
      1       0.1508      2.00000
      2       3.5636      2.00000
      3       5.1825      2.00000
      4       5.5022      2.00000
      5       6.0616      2.00000
      6       6.7328      2.00000
      7       7.3495      2.00000
      8       7.4014      2.00000
      9       7.6194      2.00001
     10       7.6594      2.00002
     11       9.3081     -0.00000
     12      12.3158     -0.00000
     13      16.4902      0.00000
     14      28.5690      0.00000
     15      33.4401      0.00000
     16      33.6807      0.00000
     17      33.8821      0.00000
     18      34.1319      0.00000
     19      39.1420      0.00000
     20      39.9214      0.00000
     21      40.5158      0.00000
     22      41.3673      0.00000
     23      44.8770      0.00000
     24      45.7202      0.00000
     25      48.9989      0.00000
     26      49.7444      0.00000
     27      51.0142      0.00000
     28      53.3485      0.00000
     29      55.6464      0.00000
     30      57.5411      0.00000
     31      58.6846      0.00000
     32      60.2688      0.00000
     33      60.9161      0.00000
     34      61.5993      0.00000
     35      61.7590      0.00000
     36      62.8443      0.00000
     37      65.9147      0.00000
     38      68.9735      0.00000
     39      69.1753      0.00000
     40      69.6046      0.00000

 k-point     4 :       0.2727   -0.0000    0.0000
  band No.  band energies     occupation 
      1       1.5704      2.00000
      2       3.7998      2.00000
      3       4.2526      2.00000
      4       5.5357      2.00000
      5       5.8730      2.00000
      6       6.7942      2.00000
      7       7.3052      2.00000
      8       7.6482      2.00001
      9       8.2769      1.46536
     10       8.4742      0.08114
     11       9.3220     -0.00000
     12      14.5358      0.00000
     13      16.7176      0.00000
     14      24.4019      0.00000
     15      29.8583      0.00000
     16      31.2300      0.00000
     17      32.0119      0.00000
     18      34.2344      0.00000
     19      37.6223      0.00000
     20      39.8682      0.00000
     21      40.6955      0.00000
     22      40.8727      0.00000
     23      42.2891      0.00000
     24      45.5319      0.00000
     25      52.6414      0.00000
     26      53.7847      0.00000
     27      54.7624      0.00000
     28      55.6784      0.00000
     29      56.0529      0.00000
     30      58.2591      0.00000
     31      59.4128      0.00000
     32      61.5337      0.00000
     33      61.5453      0.00000
     34      61.5799      0.00000
     35      63.0996      0.00000
     36      66.1765      0.00000
     37      66.3468      0.00000
     38      69.2986      0.00000
     39      69.5469      0.00000
     40      69.9513      0.00000

 k-point     5 :       0.3636   -0.0000    0.0000
  band No.  band energies     occupation 
      1       2.6930      2.00000
      2       3.4476      2.00000
      3       3.6285      2.00000
      4       5.7135      2.00000
      5       6.2616      2.00000
      6       6.4908      2.00000
      7       7.0099      2.00000
      8       9.1622     -0.00000
      9       9.2173     -0.00000
     10       9.3095     -0.00000
     11       9.3380     -0.00000
     12      16.6884      0.00000
     13      16.8985      0.00000
     14      21.2666      0.00000
     15      26.3920      0.00000
     16      29.0810      0.00000
     17      29.2010      0.00000
     18      33.5487      0.00000
     19      36.6540      0.00000
     20      40.0440      0.00000
     21      40.2442      0.00000
     22      41.7057      0.00000
     23      41.7965      0.00000
     24      45.4243      0.00000
     25      52.6134      0.00000
     26      54.6836      0.00000
     27      55.8420      0.00000
     28      59.0413      0.00000
     29      59.1503      0.00000
     30      59.1736      0.00000
     31      60.4033      0.00000
     32      62.8578      0.00000
     33      62.8598      0.00000
     34      63.5310      0.00000
     35      64.8891      0.00000
     36      66.3455      0.00000
     37      69.2248      0.00000
     38      69.5149      0.00000
     39      69.9466      0.00000
     40      70.6971      0.00000

 k-point     6 :       0.4545   -0.0000    0.0000
  band No.  band energies     occupation 
      1       2.9525      2.00000
      2       3.2374      2.00000
      3       3.3184      2.00000
      4       5.9543      2.00000
      5       6.4042      2.00000
      6       6.7808      2.00000
      7       6.8469      2.00000
      8       9.2941     -0.00000
      9       9.8093     -0.00000
     10       9.9173     -0.00000
     11      11.1265     -0.00000
     12      14.9206      0.00000
     13      19.1253      0.00000
     14      21.0454      0.00000
     15      23.6263      0.00000
     16      26.2326      0.00000
     17      28.0576      0.00000
     18      32.9208      0.00000
     19      36.3162      0.00000
     20      38.7790      0.00000
     21      40.0915      0.00000
     22      42.7591      0.00000
     23      44.3220      0.00000
     24      44.6854      0.00000
     25      49.2438      0.00000
     26      55.4295      0.00000
     27      56.3959      0.00000
     28      59.7194      0.00000
     29      60.9799      0.00000
     30      61.9972      0.00000
     31      63.2272      0.00000
     32      63.4183      0.00000
     33      63.4399      0.00000
     34      65.4495      0.00000
     35      66.5822      0.00000
     36      68.6403      0.00000
     37      68.8862      0.00000
     38      69.3150      0.00000
     39      72.0011      0.00000
     40      72.5147      0.00000

 k-point     7 :       0.0909    0.0909    0.0000
  band No.  band energies     occupation 
      1      -0.1780      2.00000
      2       3.4022      2.00000
      3       5.4924      2.00000
      4       5.5151      2.00000
      5       6.3229      2.00000
      6       6.3684      2.00000
      7       7.1748      2.00000
      8       7.4170      2.00000
      9       7.4821      2.00000
     10       7.9013      2.00903
     11       9.2552     -0.00000
     12      11.7731     -0.00000
     13      16.4586      0.00000
     14      30.2783      0.00000
     15      31.8990      0.00000
     16      33.3246      0.00000
     17      35.4104      0.00000
     18      37.6313      0.00000
     19      37.6896      0.00000
     20      39.0002      0.00000
     21      39.6529      0.00000
     22      45.0901      0.00000
     23      45.7877      0.00000
     24      46.6396      0.00000
     25      47.0445      0.00000
     26      47.8185      0.00000
     27      48.1034      0.00000
     28      53.9120      0.00000
     29      56.0507      0.00000
     30      56.7826      0.00000
     31      56.7890      0.00000
     32      59.9134      0.00000
     33      60.5186      0.00000
     34      61.8955      0.00000
     35      62.9425      0.00000
     36      63.1999      0.00000
     37      64.6115      0.00000
     38      68.7579      0.00000
     39      69.4712      0.00000
     40      69.9366      0.00000

 k-point     8 :       0.1818    0.0909    0.0000
  band No.  band energies     occupation 
      1       1.0880      2.00000
      2       4.0169      2.00000
      3       4.5920      2.00000
      4       5.2293      2.00000
      5       5.9723      2.00000
      6       6.8480      2.00000
      7       6.8526      2.00000
      8       7.5853      2.00000
      9       8.0309      2.05374
     10       8.3674      0.72527
     11       9.2284     -0.00000
     12      13.7644     -0.00000
     13      16.6697      0.00000
     14      26.5367      0.00000
     15      29.3734      0.00000
     16      31.7470      0.00000
     17      33.7678      0.00000
     18      35.0752      0.00000
     19      37.6537      0.00000
     20      38.2489      0.00000
     21      39.4757      0.00000
     22      44.3713      0.00000
     23      44.4280      0.00000
     24      46.3595      0.00000
     25      49.3274      0.00000
     26      49.9819      0.00000
     27      52.3556      0.00000
     28      56.2780      0.00000
     29      57.6564      0.00000
     30      58.5031      0.00000
     31      59.1279      0.00000
     32      60.9296      0.00000
     33      61.1416      0.00000
     34      61.8639      0.00000
     35      63.3869      0.00000
     36      63.4471      0.00000
     37      65.5178      0.00000
     38      68.8015      0.00000
     39      70.1382      0.00000
     40      70.5138      0.00000

 k-point     9 :       0.2727    0.0909    0.0000
  band No.  band energies     occupation 
      1       2.4833      2.00000
      2       3.8532      2.00000
      3       3.9106      2.00000
      4       5.3759      2.00000
      5       6.1062      2.00000
      6       6.3645      2.00000
      7       7.1489      2.00000
      8       7.8178      2.00159
      9       8.9625     -0.00008
     10       9.1943     -0.00000
     11       9.5170     -0.00000
     12      16.0333      0.00000
     13      17.0499      0.00000
     14      22.6488      0.00000
     15      27.5444      0.00000
     16      28.2033      0.00000
     17      31.6416      0.00000
     18      32.8036      0.00000
     19      37.6024      0.00000
     20      38.9886      0.00000
     21      39.1143      0.00000
     22      43.3867      0.00000
     23      43.7629      0.00000
     24      47.0731      0.00000
     25      51.3735      0.00000
     26      53.7465      0.00000
     27      54.9571      0.00000
     28      54.9765      0.00000
     29      57.6903      0.00000
     30      59.6234      0.00000
     31      59.8316      0.00000
     32      62.5931      0.00000
     33      63.4502      0.00000
     34      63.9487      0.00000
     35      64.1453      0.00000
     36      65.8111      0.00000
     37      68.4795      0.00000
     38      69.5784      0.00000
     39      69.6724      0.00000
     40      70.8472      0.00000

 k-point    10 :       0.3636    0.0909    0.0000
  band No.  band energies     occupation 
      1       3.1675      2.00000
      2       3.5021      2.00000
      3       3.5084      2.00000
      4       5.9115      2.00000
      5       6.0378      2.00000
      6       6.6015      2.00000
[...]
     18      29.8232      0.00000
     19      35.4908      0.00000
     20      36.3122      0.00000
     21      40.1183      0.00000
     22      40.5045      0.00000
     23      45.8623      0.00000
     24      46.8747      0.00000
     25      52.7275      0.00000
     26      54.4971      0.00000
     27      56.8692      0.00000
     28      58.1180      0.00000
     29      59.6181      0.00000
     30      60.8186      0.00000
     31      62.9223      0.00000
     32      62.9634      0.00000
     33      64.5284      0.00000
     34      64.8462      0.00000
     35      67.3315      0.00000
     36      67.4587      0.00000
     37      68.0360      0.00000
     38      68.4956      0.00000
     39      71.9796      0.00000
     40      72.5353      0.00000

 k-point    91 :       0.4545    0.0909    0.4545
  band No.  band energies     occupation 
      1       2.8527      2.00000
      2       3.0049      2.00000
      3       4.3150      2.00000
      4       4.3884      2.00000
      5       7.1539      2.00000
      6       7.5950      2.00000
      7       8.3770      0.64905
      8       8.7421     -0.01411
      9       9.3917     -0.00000
     10       9.4593     -0.00000
     11      12.1203     -0.00000
     12      12.6559     -0.00000
     13      19.2555      0.00000
     14      19.3253      0.00000
     15      27.8444      0.00000
     16      28.2526      0.00000
     17      29.3367      0.00000
     18      29.5683      0.00000
     19      35.0428      0.00000
     20      35.3982      0.00000
     21      39.4325      0.00000
     22      39.4949      0.00000
     23      45.9534      0.00000
     24      46.9936      0.00000
     25      52.9146      0.00000
     26      54.6420      0.00000
     27      58.5807      0.00000
     28      60.1122      0.00000
     29      61.4304      0.00000
     30      61.6442      0.00000
     31      61.8734      0.00000
     32      61.9937      0.00000
     33      64.6960      0.00000
     34      65.4494      0.00000
     35      67.7358      0.00000
     36      68.0899      0.00000
     37      69.4370      0.00000
     38      69.6007      0.00000
     39      72.9981      0.00000
     40      73.2227      0.00000

 k-point    92 :       0.1818    0.1818    0.4545
  band No.  band energies     occupation 
      1       3.0915      2.00000
      2       3.3179      2.00000
      3       5.0902      2.00000
      4       5.1096      2.00000
      5       5.6321      2.00000
      6       5.6528      2.00000
      7       7.5707      2.00000
      8       7.8330      2.00224
      9       9.1167     -0.00000
     10       9.3359     -0.00000
     11       9.9161     -0.00000
     12      10.4526     -0.00000
     13      25.2288      0.00000
     14      25.8346      0.00000
     15      26.4118      0.00000
     16      27.1069      0.00000
     17      27.8414      0.00000
     18      28.7246      0.00000
     19      39.5897      0.00000
     20      40.7762      0.00000
     21      41.6591      0.00000
     22      42.9297      0.00000
     23      44.7963      0.00000
     24      45.0042      0.00000
     25      51.6242      0.00000
     26      52.0982      0.00000
     27      54.6694      0.00000
     28      56.2418      0.00000
     29      58.3841      0.00000
     30      58.7860      0.00000
     31      60.8826      0.00000
     32      61.2032      0.00000
     33      62.6345      0.00000
     34      62.6391      0.00000
     35      64.2650      0.00000
     36      64.3859      0.00000
     37      67.2785      0.00000
     38      69.1400      0.00000
     39      70.5322      0.00000
     40      70.9054      0.00000

 k-point    93 :       0.2727    0.1818    0.4545
  band No.  band energies     occupation 
      1       3.3901      2.00000
      2       3.4953      2.00000
      3       4.7957      2.00000
      4       4.9988      2.00000
      5       6.0805      2.00000
      6       6.2448      2.00000
      7       7.4192      2.00000
      8       7.6741      2.00003
      9       9.2398     -0.00000
     10       9.5684     -0.00000
     11      11.6719     -0.00000
     12      12.1979     -0.00000
     13      22.4811      0.00000
     14      23.0341      0.00000
     15      25.3774      0.00000
     16      26.1497      0.00000
     17      27.6786      0.00000
     18      29.3697      0.00000
     19      37.2361      0.00000
     20      38.8389      0.00000
     21      40.1304      0.00000
     22      41.7274      0.00000
     23      45.8112      0.00000
     24      46.3236      0.00000
     25      53.2746      0.00000
     26      53.8157      0.00000
     27      56.0155      0.00000
     28      57.9355      0.00000
     29      59.9112      0.00000
     30      61.0407      0.00000
     31      62.4174      0.00000
     32      62.8063      0.00000
     33      63.6261      0.00000
     34      63.7188      0.00000
     35      65.3105      0.00000
     36      66.1243      0.00000
     37      67.3769      0.00000
     38      68.6077      0.00000
     39      71.5978      0.00000
     40      72.0194      0.00000

 k-point    94 :       0.3636    0.1818    0.4545
  band No.  band energies     occupation 
      1       3.3894      2.00000
      2       3.5575      2.00000
      3       4.6615      2.00000
      4       4.8476      2.00000
      5       6.2215      2.00000
      6       6.5797      2.00000
      7       7.7987      2.00100
      8       7.9157      2.01167
      9       9.2217     -0.00000
     10       9.4280     -0.00000
     11      13.5644     -0.00000
     12      14.0193      0.00000
     13      19.7291      0.00000
     14      20.0972      0.00000
     15      24.7502      0.00000
     16      25.4987      0.00000
     17      29.2808      0.00000
     18      30.4119      0.00000
     19      35.5090      0.00000
     20      36.5868      0.00000
     21      39.1247      0.00000
     22      40.7343      0.00000
     23      46.5239      0.00000
     24      46.9661      0.00000
     25      56.3368      0.00000
     26      56.9452      0.00000
     27      57.3952      0.00000
     28      58.3492      0.00000
     29      60.3834      0.00000
     30      61.1815      0.00000
     31      61.4404      0.00000
     32      61.8334      0.00000
     33      63.7532      0.00000
     34      64.2154      0.00000
     35      66.7809      0.00000
     36      66.9889      0.00000
     37      69.3098      0.00000
     38      69.4433      0.00000
     39      70.5913      0.00000
     40      71.4117      0.00000

 k-point    95 :       0.2727    0.2727    0.4545
  band No.  band energies     occupation 
      1       3.8410      2.00000
      2       3.9275      2.00000
      3       4.9573      2.00000
      4       5.1917      2.00000
      5       5.6986      2.00000
      6       5.9324      2.00000
      7       7.2464      2.00000
      8       7.4637      2.00000
      9       9.2391     -0.00000
     10       9.4649     -0.00000
     11      14.0664      0.00000
     12      14.5956      0.00000
     13      20.7980      0.00000
     14      21.2528      0.00000
     15      22.8313      0.00000
     16      23.2617      0.00000
     17      29.5070      0.00000
     18      31.1277      0.00000
     19      35.5248      0.00000
     20      36.9457      0.00000
     21      38.7906      0.00000
     22      39.9510      0.00000
     23      48.9684      0.00000
     24      49.4276      0.00000
     25      53.7108      0.00000
     26      53.7461      0.00000
     27      58.5188      0.00000
     28      60.4389      0.00000
     29      60.5106      0.00000
     30      61.2785      0.00000
     31      62.3636      0.00000
     32      62.4917      0.00000
     33      62.6378      0.00000
     34      62.9860      0.00000
     35      65.7764      0.00000
     36      66.1265      0.00000
     37      69.2260      0.00000
     38      69.2645      0.00000
     39      69.9806      0.00000
     40      69.9980      0.00000

 k-point    96 :       0.3636    0.2727    0.4545
  band No.  band energies     occupation 
      1       4.0837      2.00000
      2       4.2351      2.00000
      3       4.8889      2.00000
      4       4.9920      2.00000
      5       5.6828      2.00000
      6       5.8412      2.00000
      7       7.2919      2.00000
      8       7.4524      2.00000
      9       9.2220     -0.00000
     10       9.3018     -0.00000
     11      16.0367      0.00000
     12      16.2004      0.00000
     13      18.9941      0.00000
     14      19.3548      0.00000
     15      22.1648      0.00000
     16      22.6031      0.00000
     17      31.2713      0.00000
     18      32.1304      0.00000
     19      34.5417      0.00000
     20      34.7450      0.00000
     21      38.5098      0.00000
     22      39.3384      0.00000
     23      50.2700      0.00000
     24      50.9200      0.00000
     25      55.1214      0.00000
     26      55.5780      0.00000
     27      58.2168      0.00000
     28      58.6183      0.00000
     29      60.2262      0.00000
     30      60.5583      0.00000
     31      62.0936      0.00000
     32      62.5230      0.00000
     33      63.4810      0.00000
     34      63.5509      0.00000
     35      64.6770      0.00000
     36      66.1121      0.00000
     37      67.7161      0.00000
     38      68.5975      0.00000
     39      71.6488      0.00000
     40      71.9225      0.00000


--------------------------------------------------------------------------------------------------------


 soft charge-density along one line, spin component           1
         0         1         2         3         4         5         6         7         8         9
x     7.7860    0.0000    0.0580   -0.1004   -0.0490   -0.0849    0.0222   -0.0000    0.0010   -0.0017
x     0.0000    0.0000
y     7.7860    0.0000    0.0580    0.1004   -0.0490    0.0849    0.0222    0.0000    0.0010    0.0017
y     0.0000    0.0000
z     7.7860    0.0000    0.0000   -0.0000    0.4605    0.0000    0.0000    0.0000   -0.1510   -0.0000
z     0.0000   -0.0000    0.0208    0.0000    0.0000   -0.0000    0.0063   -0.0000    0.0000    0.0000
 total charge-density along one line
x    16.0000    0.0000    1.3897   -2.4071    0.2508    0.4344    0.0036   -0.0000    0.0022   -0.0039
x    -0.0005   -0.0008    0.0008   -0.0000   -0.0001    0.0002    0.0001    0.0001   -0.0001    0.0000
x     0.0000    0.0000
y    16.0000    0.0000    1.3897    2.4071    0.2508   -0.4344    0.0036    0.0000    0.0022    0.0039
y    -0.0005    0.0008    0.0008    0.0000   -0.0001   -0.0002    0.0001   -0.0001   -0.0001   -0.0000
y     0.0000   -0.0000
z    16.0000    0.0000    0.0000    0.0000    5.9966   -0.0000    0.0000    0.0000    1.2976   -0.0000
z     0.0000   -0.0000    0.0379   -0.0000   -0.0000   -0.0000    0.0058   -0.0000    0.0000   -0.0000
z     0.0009   -0.0000   -0.0000    0.0000   -0.0004    0.0000   -0.0000   -0.0000    0.0002    0.0000
z    -0.0000    0.0000   -0.0002    0.0000    0.0000   -0.0000    0.0002   -0.0000
 
 pseudopotential strength for first ion, spin component:           1
 -3.613  -0.000  -0.000   0.000  -0.000  -4.200  -0.000  -0.000
 -0.000  -3.588   0.000  -0.000  -0.000  -0.000  -4.176   0.000
 -0.000   0.000  -3.596  -0.000  -0.000  -0.000   0.000  -4.184
  0.000  -0.000  -0.000  -3.588  -0.000   0.000  -0.000  -0.000
 -0.000  -0.000  -0.000  -0.000  -3.613  -0.000  -0.000  -0.000
 -4.200  -0.000  -0.000   0.000  -0.000  -4.745  -0.000  -0.000
 -0.000  -4.176   0.000  -0.000  -0.000  -0.000  -4.720   0.000
 -0.000   0.000  -4.184  -0.000  -0.000  -0.000   0.000  -4.728
  0.000  -0.000  -0.000  -4.176  -0.000   0.000  -0.000  -0.000
 -0.000  -0.000  -0.000  -0.000  -4.200  -0.000  -0.000  -0.000
  0.000  -0.000  -0.001   0.000  -0.000   0.000  -0.000  -0.001
  0.000  -0.000  -0.000   0.000  -0.000   0.000  -0.000  -0.001
 -0.000   0.000  -0.000  -0.000  -0.001  -0.000   0.000  -0.000
 -0.000  -0.000   0.000  -0.000  -0.000  -0.000  -0.000   0.000
 -0.001  -0.000   0.000   0.000  -0.000  -0.001  -0.000   0.000
 -0.000   0.000  -0.000  -0.000  -0.001  -0.000   0.000  -0.000
 -0.000  -0.000   0.000  -0.000  -0.000  -0.000  -0.000   0.000
 -0.001  -0.000   0.000   0.000  -0.000  -0.001  -0.000   0.000
 total augmentation occupancy for first ion, spin component:           1
  1.848   0.000   0.000   0.000  -0.000  -1.476   0.000  -0.000  -0.000   0.000   0.000  -0.000   0.000   0.000   0.039  -0.000
 -0.000   2.432   0.000  -0.000   0.000   0.000  -1.745   0.000   0.000   0.000  -0.000  -0.000   0.000  -0.000   0.000   0.000
  0.000   0.000   1.451   0.000  -0.000  -0.000  -0.000  -1.097   0.000   0.000   0.076  -0.016  -0.000   0.000   0.000   0.000
  0.000  -0.000   0.000   2.432   0.000   0.000   0.000   0.000  -1.745   0.000   0.000   0.000   0.000   0.000  -0.000   0.000
  0.000   0.000  -0.000   0.000   1.848   0.000   0.000   0.000  -0.000  -1.476   0.000  -0.000   0.039  -0.000  -0.000  -0.001
 -1.476   0.000  -0.000   0.000   0.000   2.492   0.000   0.000  -0.000   0.000  -0.000   0.000  -0.000  -0.000  -0.052   0.000
  0.000  -1.745  -0.000   0.000  -0.000   0.000   2.405   0.000  -0.000   0.000   0.000   0.000  -0.000   0.000   0.000  -0.000
 -0.000  -0.000  -1.097   0.000   0.000   0.000   0.000   2.110   0.000  -0.000  -0.170   0.009   0.000   0.000  -0.000   0.000
 -0.000   0.000   0.000  -1.745   0.000   0.000  -0.000  -0.000   2.405   0.000   0.000   0.000   0.000   0.000  -0.000   0.000
  0.000   0.000   0.000   0.000  -1.476   0.000   0.000  -0.000   0.000   2.492  -0.000   0.000  -0.052  -0.000   0.000   0.002
  0.000   0.000   0.076   0.000   0.000  -0.000  -0.000  -0.170   0.000  -0.000   3.043  -0.362   0.000   0.000  -0.000   0.000
 -0.000   0.000  -0.016   0.000  -0.000   0.000   0.000   0.009   0.000   0.000  -0.362   0.049   0.000   0.000  -0.000   0.000
  0.000  -0.000  -0.000   0.000   0.039  -0.000   0.000   0.000   0.000  -0.052  -0.000  -0.000   0.421  -0.000  -0.000  -0.031
  0.000   0.000   0.000   0.000   0.000   0.000   0.000   0.000   0.000   0.000   0.000   0.000   0.000   0.388   0.000  -0.000
  0.039   0.000   0.000  -0.000  -0.000  -0.052   0.000  -0.000  -0.000   0.000   0.000  -0.000  -0.000   0.000   0.421   0.000
 -0.000   0.000   0.000   0.000  -0.001   0.000   0.000  -0.000   0.000   0.002   0.000   0.000  -0.031   0.000   0.000   0.003
  0.000  -0.000   0.000  -0.000   0.000  -0.000   0.000   0.000   0.000  -0.000   0.000   0.000  -0.000  -0.035   0.000   0.000
 -0.001   0.000  -0.000  -0.000   0.000   0.002   0.000   0.000  -0.000  -0.000   0.000   0.000   0.000   0.000  -0.031  -0.000


------------------------ aborting loop because EDIFF is reached ----------------------------------------


    CHARGE:  cpu time    0.0197: real time    0.0197
    FORLOC:  cpu time    0.0002: real time    0.0002
    FORNL :  cpu time    0.0885: real time    0.0885
    STRESS:  cpu time    0.1310: real time    0.1310
    FORCOR:  cpu time    0.0034: real time    0.0034
    FORHAR:  cpu time    0.0007: real time    0.0007
    MIXING:  cpu time    0.0002: real time    0.0002

  FORCE on cell =-STRESS in cart. coord.  units (eV):
  Direction    XX          YY          ZZ          XY          YZ          ZX
  --------------------------------------------------------------------------------------
  Alpha Z   152.56182   152.56182   152.56182
  Ewald    -402.90685  -402.90685  -468.81220     0.00000    -0.00000     0.00000
  Hartree    60.40366    60.40366    37.12387    -0.00000    -0.00000    -0.00000
  E(xc)     -80.00411   -80.00411   -79.62029     0.00009     0.00000     0.00000
  Local      98.57734    98.57747   182.81435    -0.00055     0.00000    -0.00000
  n-local   -49.51546   -48.90812   -52.44800    -5.30868     1.39186     0.90022
  augment    74.82346    74.82327    75.67835     0.00061     0.00000    -0.00000
  Kinetic   157.74326   151.11266   151.73432     1.82506    -0.81104     0.27394
  Fock        0.00000     0.00000     0.00000     0.00000     0.00000     0.00000
  -------------------------------------------------------------------------------------
  Total       8.67146     8.67146    -0.96778    -0.00000    -0.00000     0.00000
  in kB     766.69728   766.69728   -85.56747    -0.00000    -0.00000     0.00000
  external pressure =      482.61 kB  Pullay stress =        0.00 kB


 VOLUME and BASIS-vectors are now :
 -----------------------------------------------------------------------------
  energy-cutoff  :      280.00
  volume of cell :       18.12
      direct lattice vectors                 reciprocal lattice vectors
     2.260100000  0.000000000  0.000000000     0.442458298  0.255453418  0.000000000
    -1.130050000  1.957304015  0.000000000     0.000000000  0.510906835  0.000000000
     0.000000000  0.000000000  4.096310000     0.000000000  0.000000000  0.244122149

  length of vectors
     2.260100000  2.260100000  4.096310000     0.510906835  0.510906835  0.244122149


 FORCES acting on ions
    electron-ion (+dipol)            ewald-force                    non-local-force                 convergence-correction
 -----------------------------------------------------------------------------------------------
   0.911E-06 -.368E-06 -.216E-14   0.518E-12 -.289E-12 -.265E-13   -.324E-16 0.108E-17 -.520E-19   -.534E-09 0.310E-09 -.368E-13
   0.162E-05 0.189E-05 0.253E-12   -.519E-12 0.297E-12 0.265E-13   0.232E-16 -.290E-17 0.866E-19   0.521E-09 -.302E-09 0.404E-13
 -----------------------------------------------------------------------------------------------
   0.254E-05 0.152E-05 0.251E-12   -.373E-15 0.790E-14 -.211E-17   -.911E-17 -.182E-17 0.346E-19   -.127E-10 0.756E-11 0.364E-14
 
 
 POSITION                                       TOTAL-FORCE (eV/Angst)
 -----------------------------------------------------------------------------------
      0.00000      0.00000      0.00000         0.000000     -0.000000      0.000000
      0.00000      1.30487      2.04815        -0.000000      0.000000     -0.000000
 -----------------------------------------------------------------------------------
    total drift:                                0.000003      0.000002      0.000000


--------------------------------------------------------------------------------------------------------



  FREE ENERGIE OF THE ION-ELECTRON SYSTEM (eV)
  ---------------------------------------------------
  free  energy   TOTEN  =       -15.61642112 eV

  energy  without entropy=      -15.61808179  energy(sigma->0) =      -15.61697467
 


--------------------------------------------------------------------------------------------------------


    POTLOK:  cpu time    0.0055: real time    0.0055


--------------------------------------------------------------------------------------------------------


 writing wavefunctions
     LOOP+:  cpu time   10.1782: real time   10.1983
    4ORBIT:  cpu time    0.0000: real time    0.0000

 total amount of memory used by VASP MPI-rank0    48414. kBytes
=======================================================================

   base      :      30000. kBytes
   nonl-proj :       2826. kBytes
   grid      :        812. kBytes
   one-center:         31. kBytes
   wavefun   :      14745. kBytes
 
  
  
 General timing and accounting informations for this job:
 ========================================================
  
                  Total CPU time used (sec):       10.348
                            User time (sec):       10.296
                          System time (sec):        0.052
                         Elapsed time (sec):       10.356
  
                   Maximum memory used (kb):       54296.
                   Average memory used (kb):          N/A
  
                          Minor page faults:         7200
                          Major page faults:            0
                 Voluntary context switches:           26
