 vasp.6.2.0 18Jan21 (build Mar 17 2021 09:06:54) complex                        
  
 POSCAR found type information on POSCAR Fe
 POSCAR found :  1 types and       2 ions
 LDA part: xc-table for Pade appr. of Perdew
 POSCAR, INCAR and KPOINTS ok, starting setup
 FFT: planning ...
 WAVECAR not read
 WARNING: chargedensity file is incomplete
 entering main loop
       N       E                     dE             d eps       ncg     rms          rms(c)
DAV:   1     0.602204159402E+02    0.60220E+02   -0.24723E+03  9408   0.330E+02
DAV:   2    -0.142045194362E+02   -0.74425E+02   -0.63467E+02  7944   0.973E+01
DAV:   3    -0.183498188303E+02   -0.41453E+01   -0.39611E+01  9632   0.238E+01
DAV:   4    -0.183648625083E+02   -0.15044E-01   -0.15037E-01  8840   0.151E+00
DAV:   5    -0.183648724222E+02   -0.99139E-05   -0.99130E-05  9368   0.370E-02    0.194E+01
DAV:   6    -0.157795051803E+02    0.25854E+01   -0.14224E+00 11304   0.218E+01    0.166E+00
DAV:   7    -0.156586601078E+02    0.12085E+00   -0.62353E-02  9704   0.350E+00    0.157E+00
DAV:   8    -0.156226236286E+02    0.36036E-01   -0.24630E-03 10376   0.316E-01    0.557E-01
DAV:   9    -0.156164186649E+02    0.62050E-02   -0.70684E-04 10544   0.143E-01    0.567E-02
DAV:  10    -0.156164416797E+02   -0.23015E-04   -0.21108E-05  8552   0.226E-02    0.279E-02
DAV:  11    -0.156164225382E+02    0.19141E-04   -0.39089E-07  8784   0.515E-03    0.243E-03
DAV:  12    -0.156164207107E+02    0.18275E-05   -0.87209E-08  6480   0.130E-03    0.121E-03
DAV:  13    -0.156164211159E+02   -0.40520E-06   -0.80419E-09  5040   0.433E-04
   1 F= -.15616421E+02 E0= -.15616975E+02  d E =0.166067E-02
 writing wavefunctions
