<?xml version="1.0" encoding="ISO-8859-1"?>
<modeling>
 <generator>
  <i name="program" type="string">vasp </i>
  <i name="version" type="string">6.2.0  </i>
  <i name="subversion" type="string">18Jan21 (build Mar 17 2021 09:06:54) complex                          serial </i>
  <i name="platform" type="string">LinuxIFC </i>
  <i name="date" type="string">2021 09 09 </i>
  <i name="time" type="string">12:00:20 </i>
 </generator>
 <incar>
  <i type="string" name="PREC">normal</i>
  <i type="int" name="ICHARG">     1</i>
  <i type="int" name="IBRION">     1</i>
  <i name="EDIFF">      0.00000100</i>
  <i type="int" name="NSW">     0</i>
  <i type="int" name="ISIF">     2</i>
  <i name="ENCUT">    280.00000000</i>
  <i type="int" name="NBANDS">    40</i>
  <i type="int" name="ISMEAR">     1</i>
  <i name="SIGMA">      0.20000000</i>
  <i type="logical" name="LCHARG"> T  </i>
  <i type="int" name="KPAR">     1</i>
  <i type="int" name="NCORE">     1</i>
  <i type="string" name="GGA">PE</i>
 </incar>
 <primitive_cell>
  <structure name="primitive_cell" >
   <crystal>
    <varray name="basis" >
     <v>       2.26010000       0.00000000       0.00000000 </v>
     <v>      -1.13005000       1.95730402       0.00000000 </v>
     <v>       0.00000000       0.00000000       4.09631000 </v>
    </varray>
    <i name="volume">     18.12085804 </i>
    <varray name="rec_basis" >
     <v>       0.44245830       0.25545342       0.00000000 </v>
     <v>       0.00000000       0.51090684       0.00000000 </v>
     <v>       0.00000000       0.00000000       0.24412215 </v>
    </varray>
   </crystal>
   <varray name="positions" >
    <v>       0.00000000       0.00000000       0.00000000 </v>
    <v>       0.33333333       0.66666667       0.50000000 </v>
   </varray>
  </structure>
  <varray name="primitive_index" >
   <v type="int" >        1 </v>
   <v type="int" >        2 </v>
  </varray>
 </primitive_cell>
 <kpoints>
  <generation param="Monkhorst-Pack">
   <v type="int" name="divisions">      11       11       11 </v>
   <v name="usershift">      0.00000000       0.00000000       0.00000000 </v>
   <v name="genvec1">      0.09090909       0.00000000       0.00000000 </v>
   <v name="genvec2">      0.00000000       0.09090909       0.00000000 </v>
   <v name="genvec3">      0.00000000       0.00000000       0.09090909 </v>
   <v name="shift">      0.00000000       0.00000000       0.00000000 </v>
  </generation>
  <varray name="kpointlist" >
   <v>       0.00000000       0.00000000       0.00000000 </v>
   <v>       0.09090909      -0.00000000       0.00000000 </v>
   <v>       0.18181818      -0.00000000       0.00000000 </v>
   <v>       0.27272727      -0.00000000       0.00000000 </v>
   <v>       0.36363636      -0.00000000       0.00000000 </v>
   <v>       0.45454545      -0.00000000       0.00000000 </v>
   <v>       0.09090909       0.09090909       0.00000000 </v>
   <v>       0.18181818       0.09090909       0.00000000 </v>
   <v>       0.27272727       0.09090909       0.00000000 </v>
   <v>       0.36363636       0.09090909       0.00000000 </v>
   <v>       0.45454545       0.09090909       0.00000000 </v>
   <v>       0.18181818       0.18181818       0.00000000 </v>
   <v>       0.27272727       0.18181818       0.00000000 </v>
   <v>       0.36363636       0.18181818       0.00000000 </v>
   <v>       0.27272727       0.27272727       0.00000000 </v>
   <v>       0.36363636       0.27272727       0.00000000 </v>
   <v>       0.00000000       0.00000000       0.09090909 </v>
   <v>       0.09090909      -0.00000000       0.09090909 </v>
   <v>       0.18181818      -0.00000000       0.09090909 </v>
   <v>       0.27272727      -0.00000000       0.09090909 </v>
   <v>       0.36363636      -0.00000000       0.09090909 </v>
   <v>       0.45454545      -0.00000000       0.09090909 </v>
   <v>       0.09090909       0.09090909       0.09090909 </v>
   <v>       0.18181818       0.09090909       0.09090909 </v>
   <v>       0.27272727       0.09090909       0.09090909 </v>
   <v>       0.36363636       0.09090909       0.09090909 </v>
   <v>       0.45454545       0.09090909       0.09090909 </v>
   <v>       0.18181818       0.18181818       0.09090909 </v>
   <v>       0.27272727       0.18181818       0.09090909 </v>
   <v>       0.36363636       0.18181818       0.09090909 </v>
   <v>       0.27272727       0.27272727       0.09090909 </v>
   <v>       0.36363636       0.27272727       0.09090909 </v>
   <v>       0.00000000       0.00000000       0.18181818 </v>
   <v>       0.09090909      -0.00000000       0.18181818 </v>
   <v>       0.18181818      -0.00000000       0.18181818 </v>
   <v>       0.27272727      -0.00000000       0.18181818 </v>
   <v>       0.36363636      -0.00000000       0.18181818 </v>
   <v>       0.45454545      -0.00000000       0.18181818 </v>
   <v>       0.09090909       0.09090909       0.18181818 </v>
   <v>       0.18181818       0.09090909       0.18181818 </v>
   <v>       0.27272727       0.09090909       0.18181818 </v>
   <v>       0.36363636       0.09090909       0.18181818 </v>
   <v>       0.45454545       0.09090909       0.18181818 </v>
   <v>       0.18181818       0.18181818       0.18181818 </v>
   <v>       0.27272727       0.18181818       0.18181818 </v>
   <v>       0.36363636       0.18181818       0.18181818 </v>
   <v>       0.27272727       0.27272727       0.18181818 </v>
   <v>       0.36363636       0.27272727       0.18181818 </v>
   <v>       0.00000000       0.00000000       0.27272727 </v>
   <v>       0.09090909      -0.00000000       0.27272727 </v>
   <v>       0.18181818      -0.00000000       0.27272727 </v>
   <v>       0.27272727      -0.00000000       0.27272727 </v>
   <v>       0.36363636      -0.00000000       0.27272727 </v>
   <v>       0.45454545      -0.00000000       0.27272727 </v>
   <v>       0.09090909       0.09090909       0.27272727 </v>
   <v>       0.18181818       0.09090909       0.27272727 </v>
   <v>       0.27272727       0.09090909       0.27272727 </v>
   <v>       0.36363636       0.09090909       0.27272727 </v>
   <v>       0.45454545       0.09090909       0.27272727 </v>
   <v>       0.18181818       0.18181818       0.27272727 </v>
   <v>       0.27272727       0.18181818       0.27272727 </v>
   <v>       0.36363636       0.18181818       0.27272727 </v>
   <v>       0.27272727       0.27272727       0.27272727 </v>
   <v>       0.36363636       0.27272727       0.27272727 </v>
   <v>       0.00000000       0.00000000       0.36363636 </v>
   <v>       0.09090909      -0.00000000       0.36363636 </v>
   <v>       0.18181818      -0.00000000       0.36363636 </v>
   <v>       0.27272727      -0.00000000       0.36363636 </v>
   <v>       0.36363636      -0.00000000       0.36363636 </v>
   <v>       0.45454545      -0.00000000       0.36363636 </v>
   <v>       0.09090909       0.09090909       0.36363636 </v>
   <v>       0.18181818       0.09090909       0.36363636 </v>
   <v>       0.27272727       0.09090909       0.36363636 </v>
   <v>       0.36363636       0.09090909       0.36363636 </v>
   <v>       0.45454545       0.09090909       0.36363636 </v>
   <v>       0.18181818       0.18181818       0.36363636 </v>
   <v>       0.27272727       0.18181818       0.36363636 </v>
   <v>       0.36363636       0.18181818       0.36363636 </v>
   <v>       0.27272727       0.27272727       0.36363636 </v>
   <v>       0.36363636       0.27272727       0.36363636 </v>
   <v>       0.00000000       0.00000000       0.45454545 </v>
   <v>       0.09090909      -0.00000000       0.45454545 </v>
   <v>       0.18181818      -0.00000000       0.45454545 </v>
   <v>       0.27272727      -0.00000000       0.45454545 </v>
   <v>       0.36363636      -0.00000000       0.45454545 </v>
   <v>       0.45454545      -0.00000000       0.45454545 </v>
   <v>       0.09090909       0.09090909       0.45454545 </v>
   <v>       0.18181818       0.09090909       0.45454545 </v>
   <v>       0.27272727       0.09090909       0.45454545 </v>
   <v>       0.36363636       0.09090909       0.45454545 </v>
   <v>       0.45454545       0.09090909       0.45454545 </v>
   <v>       0.18181818       0.18181818       0.45454545 </v>
   <v>       0.27272727       0.18181818       0.45454545 </v>
   <v>       0.36363636       0.18181818       0.45454545 </v>
   <v>       0.27272727       0.27272727       0.45454545 </v>
   <v>       0.36363636       0.27272727       0.45454545 </v>
  </varray>
  <varray name="weights" >
   <v>       0.00075131 </v>
   <v>       0.00450789 </v>
   <v>       0.00450789 </v>
   <v>       0.00450789 </v>
   <v>       0.00450789 </v>
   <v>       0.00450789 </v>
   <v>       0.00450789 </v>
   <v>       0.00901578 </v>
   <v>       0.00901578 </v>
   <v>       0.00901578 </v>
   <v>       0.00450789 </v>
   <v>       0.00450789 </v>
   <v>       0.00901578 </v>
   <v>       0.00901578 </v>
   <v>       0.00450789 </v>
   <v>       0.00450789 </v>
   <v>       0.00150263 </v>
   <v>       0.00901578 </v>
   <v>       0.00901578 </v>
   <v>       0.00901578 </v>
   <v>       0.00901578 </v>
   <v>       0.00901578 </v>
   <v>       0.00901578 </v>
   <v>       0.01803156 </v>
   <v>       0.01803156 </v>
   <v>       0.01803156 </v>
   <v>       0.00901578 </v>
   <v>       0.00901578 </v>
   <v>       0.01803156 </v>
   <v>       0.01803156 </v>
   <v>       0.00901578 </v>
   <v>       0.00901578 </v>
   <v>       0.00150263 </v>
   <v>       0.00901578 </v>
   <v>       0.00901578 </v>
   <v>       0.00901578 </v>
   <v>       0.00901578 </v>
   <v>       0.00901578 </v>
   <v>       0.00901578 </v>
   <v>       0.01803156 </v>
   <v>       0.01803156 </v>
   <v>       0.01803156 </v>
   <v>       0.00901578 </v>
   <v>       0.00901578 </v>
   <v>       0.01803156 </v>
   <v>       0.01803156 </v>
   <v>       0.00901578 </v>
   <v>       0.00901578 </v>
   <v>       0.00150263 </v>
   <v>       0.00901578 </v>
   <v>       0.00901578 </v>
   <v>       0.00901578 </v>
   <v>       0.00901578 </v>
   <v>       0.00901578 </v>
   <v>       0.00901578 </v>
   <v>       0.01803156 </v>
   <v>       0.01803156 </v>
   <v>       0.01803156 </v>
   <v>       0.00901578 </v>
   <v>       0.00901578 </v>
   <v>       0.01803156 </v>
   <v>       0.01803156 </v>
   <v>       0.00901578 </v>
   <v>       0.00901578 </v>
   <v>       0.00150263 </v>
   <v>       0.00901578 </v>
   <v>       0.00901578 </v>
   <v>       0.00901578 </v>
   <v>       0.00901578 </v>
   <v>       0.00901578 </v>
   <v>       0.00901578 </v>
   <v>       0.01803156 </v>
   <v>       0.01803156 </v>
   <v>       0.01803156 </v>
   <v>       0.00901578 </v>
   <v>       0.00901578 </v>
   <v>       0.01803156 </v>
   <v>       0.01803156 </v>
   <v>       0.00901578 </v>
   <v>       0.00901578 </v>
   <v>       0.00150263 </v>
   <v>       0.00901578 </v>
   <v>       0.00901578 </v>
   <v>       0.00901578 </v>
   <v>       0.00901578 </v>
   <v>       0.00901578 </v>
   <v>       0.00901578 </v>
   <v>       0.01803156 </v>
   <v>       0.01803156 </v>
   <v>       0.01803156 </v>
   <v>       0.00901578 </v>
   <v>       0.00901578 </v>
   <v>       0.01803156 </v>
   <v>       0.01803156 </v>
   <v>       0.00901578 </v>
   <v>       0.00901578 </v>
  </varray>
 </kpoints>
 <parameters>
  <separator name="general" >
   <i type="string" name="SYSTEM">unknown system</i>
   <i type="logical" name="LCOMPAT"> F  </i>
  </separator>
  <separator name="electronic" >
   <i type="string" name="PREC">normal</i>
   <i name="ENMAX">    280.00000000</i>
   <i name="ENAUG">    511.36800000</i>
   <i name="EDIFF">      0.00000100</i>
   <i type="int" name="IALGO">    38</i>
   <i type="int" name="IWAVPR">     0</i>
   <i type="int" name="NBANDS">    40</i>
   <i type="int" name="NBANDSLOW">    -1</i>
   <i type="int" name="NBANDSHIGH">    -1</i>
   <i name="NELECT">     16.00000000</i>
   <i type="int" name="TURBO">     0</i>
   <i type="int" name="IRESTART">     0</i>
   <i type="int" name="NREBOOT">     0</i>
   <i type="int" name="NMIN">     0</i>
   <i name="EREF">      0.00000000</i>
   <separator name="electronic smearing" >
    <i type="int" name="ISMEAR">     1</i>
    <i name="SIGMA">      0.20000000</i>
    <i name="KSPACING">      0.50000000</i>
    <i type="logical" name="KGAMMA"> T  </i>
    <i type="logical" name="KBLOWUP"> T  </i>
   </separator>
   <separator name="electronic projectors" >
    <i type="logical" name="LREAL"> F  </i>
    <v name="ROPT">      0.00000000</v>
    <i type="int" name="LMAXPAW">  -100</i>
    <i type="int" name="LMAXMIX">     2</i>
    <i type="logical" name="NLSPLINE"> F  </i>
   </separator>
   <separator name="electronic startup" >
    <i type="int" name="ISTART">     0</i>
    <i type="int" name="ICHARG">     1</i>
    <i type="int" name="INIWAV">     1</i>
   </separator>
   <separator name="electronic spin" >
    <i type="int" name="ISPIN">     1</i>
    <i type="logical" name="LNONCOLLINEAR"> F  </i>
    <v name="MAGMOM">      1.00000000      1.00000000</v>
    <i name="NUPDOWN">     -1.00000000</i>
    <i type="logical" name="LSORBIT"> F  </i>
    <v name="SAXIS">      0.00000000      0.00000000      1.00000000</v>
    <i type="logical" name="LSPIRAL"> F  </i>
    <v name="QSPIRAL">      0.00000000      0.00000000      0.00000000</v>
    <i type="logical" name="LZEROZ"> F  </i>
   </separator>
   <separator name="electronic exchange-correlation" >
    <i type="logical" name="LASPH"> F  </i>
    <i type="logical" name="LMETAGGA"> F  </i>
   </separator>
   <separator name="electronic convergence" >
    <i type="int" name="NELM">    60</i>
    <i type="int" name="NELMDL">    -5</i>
    <i type="int" name="NELMIN">     2</i>
    <i name="ENINI">    280.00000000</i>
    <separator name="electronic convergence detail" >
     <i type="logical" name="LDIAG"> T  </i>
     <i type="logical" name="LSUBROT"> F  </i>
     <i name="WEIMIN">      0.00000000</i>
     <i name="EBREAK">      0.00000001</i>
     <i name="DEPER">      0.30000000</i>
     <i type="int" name="NRMM">     4</i>
     <i name="TIME">      0.40000000</i>
    </separator>
   </separator>
   <separator name="electronic mixer" >
    <i name="AMIX">      0.40000000</i>
    <i name="BMIX">      1.00000000</i>
    <i name="AMIN">      0.10000000</i>
    <i name="AMIX_MAG">      1.60000000</i>
    <i name="BMIX_MAG">      1.00000000</i>
    <separator name="electronic mixer details" >
     <i type="int" name="IMIX">     4</i>
     <i type="logical" name="MIXFIRST"> F  </i>
     <i type="int" name="MAXMIX">   -45</i>
     <i name="WC">    100.00000000</i>
     <i type="int" name="INIMIX">     1</i>
     <i type="int" name="MIXPRE">     1</i>
     <i type="int" name="MREMOVE">     5</i>
    </separator>
   </separator>
   <separator name="electronic dipolcorrection" >
    <i type="logical" name="LDIPOL"> F  </i>
    <i type="logical" name="LMONO"> F  </i>
    <i type="int" name="IDIPOL">     0</i>
    <i name="EPSILON">      1.00000000</i>
    <v name="DIPOL">   -100.00000000   -100.00000000   -100.00000000</v>
    <i name="EFIELD">      0.00000000</i>
   </separator>
  </separator>
  <separator name="grids" >
   <i type="int" name="NGX">    10</i>
   <i type="int" name="NGY">    10</i>
   <i type="int" name="NGZ">    18</i>
   <i type="int" name="NGXF">    20</i>
   <i type="int" name="NGYF">    20</i>
   <i type="int" name="NGZF">    36</i>
   <i type="logical" name="ADDGRID"> F  </i>
  </separator>
  <separator name="ionic" >
   <i type="int" name="NSW">     0</i>
   <i type="int" name="IBRION">    -1</i>
   <i type="int" name="MDALGO">     0</i>
   <i type="int" name="ISIF">     2</i>
   <i name="PSTRESS">      0.00000000</i>
   <i name="EDIFFG">      0.00001000</i>
   <i type="int" name="NFREE">     0</i>
   <i name="POTIM">      0.50000000</i>
   <i name="SMASS">     -3.00000000</i>
   <i name="SCALEE">      1.00000000</i>
  </separator>
  <separator name="ionic md" >
   <i name="TEBEG">      0.00010000</i>
   <i name="TEEND">      0.00010000</i>
   <i type="int" name="NBLOCK">     1</i>
   <i type="int" name="KBLOCK">     1</i>
   <i type="int" name="NPACO">   256</i>
   <i name="APACO">     16.00000000</i>
  </separator>
  <separator name="symmetry" >
   <i type="int" name="ISYM">     2</i>
   <i name="SYMPREC">      0.00001000</i>
  </separator>
  <separator name="dos" >
   <i type="int" name="LORBIT">     0</i>
   <v name="RWIGS">     -1.00000000</v>
   <i type="int" name="NEDOS">   301</i>
   <i name="EMIN">     10.00000000</i>
   <i name="EMAX">    -10.00000000</i>
   <i name="EFERMI">      0.00000000</i>
  </separator>
  <separator name="writing" >
   <i type="int" name="NWRITE">     2</i>
   <i type="logical" name="LWAVE"> T  </i>
   <i type="logical" name="LDOWNSAMPLE"> F  </i>
   <i type="logical" name="LCHARG"> T  </i>
   <i type="logical" name="LPARD"> F  </i>
   <i type="logical" name="LVTOT"> F  </i>
   <i type="logical" name="LVHAR"> F  </i>
   <i type="logical" name="LELF"> F  </i>
   <i type="logical" name="LOPTICS"> F  </i>
   <v name="STM">      0.00000000      0.00000000      0.00000000      0.00000000      0.00000000      0.00000000      0.00000000</v>
  </separator>
  <separator name="performance" >
   <i type="int" name="NPAR">     1</i>
   <i type="int" name="NSIM">     4</i>
   <i type="int" name="NBLK">    -1</i>
   <i type="logical" name="LPLANE"> T  </i>
   <i type="logical" name="LSCALAPACK"> F  </i>
   <i type="logical" name="LSCAAWARE"> F  </i>
   <i type="logical" name="LSCALU"> F  </i>
   <i type="logical" name="LASYNC"> F  </i>
   <i type="logical" name="LORBITALREAL"> F  </i>
  </separator>
  <separator name="miscellaneous" >
   <i type="int" name="IDIOT">     3</i>
   <i type="int" name="PHON_NSTRUCT">    -1</i>
   <i type="logical" name="LMUSIC"> F  </i>
   <v name="POMASS">     55.84700000</v>
   <v name="DARWINR">      0.00000000</v>
   <v name="DARWINV">      1.00000000</v>
   <i type="logical" name="LCORR"> T  </i>
  </separator>
  <i type="logical" name="GGA_COMPAT"> T  </i>
  <i type="logical" name="LBERRY"> F  </i>
  <i type="int" name="ICORELEVEL">     0</i>
  <i type="logical" name="LDAU"> F  </i>
  <i type="int" name="I_CONSTRAINED_M">     0</i>
  <separator name="electronic exchange-correlation" >
   <i type="string" name="GGA">PE</i>
   <i type="int" name="VOSKOWN">     0</i>
   <i type="logical" name="LHFCALC"> F  </i>
   <i type="string" name="PRECFOCK"></i>
   <i type="logical" name="LSYMGRAD"> F  </i>
   <i type="logical" name="LHFONE"> F  </i>
   <i type="logical" name="LRHFCALC"> F  </i>
   <i type="logical" name="LTHOMAS"> F  </i>
   <i type="logical" name="LMODELHF"> F  </i>
   <i type="logical" name="LFOCKACE"> F  </i>
   <i name="ENCUT4O">     -1.00000000</i>
   <i type="int" name="EXXOEP">     0</i>
   <i type="int" name="FOURORBIT">     0</i>
   <i name="AEXX">      0.00000000</i>
   <i name="HFALPHA">      0.00000000</i>
   <i name="MCALPHA">      0.00000000</i>
   <i name="ALDAX">      1.00000000</i>
   <i name="AGGAX">      1.00000000</i>
   <i name="ALDAC">      1.00000000</i>
   <i name="AGGAC">      1.00000000</i>
   <i type="int" name="NKREDX">     1</i>
   <i type="int" name="NKREDY">     1</i>
   <i type="int" name="NKREDZ">     1</i>
   <i type="logical" name="SHIFTRED"> F  </i>
   <i type="logical" name="ODDONLY"> F  </i>
   <i type="logical" name="EVENONLY"> F  </i>
   <i type="int" name="LMAXFOCK">     0</i>
   <i type="int" name="NMAXFOCKAE">     0</i>
   <i type="logical" name="LFOCKAEDFT"> F  </i>
   <i name="HFSCREEN">      0.00000000</i>
   <i name="HFSCREENC">      0.00000000</i>
   <i type="int" name="NBANDSGWLOW">     0</i>
  </separator>
  <separator name="vdW DFT" >
   <i type="logical" name="LUSE_VDW"> F  </i>
   <i name="Zab_VDW">     -0.84910000</i>
   <i name="PARAM1">      0.12340000</i>
   <i name="PARAM2">      1.00000000</i>
   <i name="PARAM3">      0.00000000</i>
  </separator>
  <separator name="model GW" >
   <i type="int" name="MODEL_GW">     0</i>
   <i name="MODEL_EPS0">      5.43625741</i>
   <i name="MODEL_ALPHA">      1.00000000</i>
  </separator>
  <separator name="linear response parameters" >
   <i type="logical" name="LEPSILON"> F  </i>
   <i type="logical" name="LRPA"> F  </i>
   <i type="logical" name="LNABLA"> F  </i>
   <i type="logical" name="LVEL"> F  </i>
   <i type="int" name="KINTER">     0</i>
   <i name="CSHIFT">      0.10000000</i>
   <i name="OMEGAMAX">     -1.00000000</i>
   <i name="DEG_THRESHOLD">      0.00200000</i>
   <i name="RTIME">     -0.10000000</i>
   <i name="WPLASMAI">      0.00000000</i>
   <v name="DFIELD">      0.00000000      0.00000000      0.00000000</v>
   <v name="WPLASMA">      0.00000000      0.00000000      0.00000000      0.00000000      0.00000000      0.00000000      0.00000000      0.00000000      0.00000000</v>
  </separator>
  <separator name="orbital magnetization" >
   <i type="logical" name="NUCIND"> F  </i>
   <v name="MAGPOS">      0.00000000      0.00000000      0.00000000</v>
   <i type="logical" name="LNICSALL"> T  </i>
   <i type="logical" name="ORBITALMAG"> F  </i>
   <i type="logical" name="LMAGBLOCH"> F  </i>
   <i type="logical" name="LCHIMAG"> F  </i>
   <i type="logical" name="LGAUGE"> T  </i>
   <i type="int" name="MAGATOM">     0</i>
   <v name="MAGDIPOL">      0.00000000      0.00000000      0.00000000</v>
   <v name="AVECCONST">      0.00000000      0.00000000      0.00000000</v>
  </separator>
  <separator name="response functions" >
   <i type="logical" name="LFINITE_TEMPERATURE"> F  </i>
   <i type="logical" name="LADDER"> F  </i>
   <i type="logical" name="LRPAFORCE"> F  </i>
   <i type="logical" name="LFXC"> F  </i>
   <i type="logical" name="LHARTREE"> T  </i>
   <i type="int" name="IBSE">     0</i>
   <v type="int" name="KPOINT">    -1     0     0     0</v>
   <i type="logical" name="LTCTC"> F  </i>
   <i type="logical" name="LTCTE"> F  </i>
   <i type="logical" name="LTETE"> F  </i>
   <i type="logical" name="LTRIPLET"> F  </i>
   <i type="logical" name="LFXCEPS"> F  </i>
   <i type="logical" name="LFXHEG"> F  </i>
   <i type="int" name="NATURALO">     2</i>
   <i type="logical" name="LHOLEGF"> F  </i>
   <i type="logical" name="L2ORDER"> F  </i>
   <i type="logical" name="LDMP1"> F  </i>
   <i type="logical" name="LMP2LT"> F  </i>
   <i type="logical" name="LSMP2LT"> F  </i>
   <i type="logical" name="LGWLF"> F  </i>
   <i name="ENCUTGW">     -2.00000000</i>
   <i name="ENCUTGWSOFT">     -2.00000000</i>
   <i name="ENCUTLF">     -1.00000000</i>
   <i type="logical" name="LESF_SPLINES"> F  </i>
   <i type="int" name="LMAXMP2">    -1</i>
   <i name="SCISSOR">      0.00000000</i>
   <i type="int" name="NOMEGA">     0</i>
   <i type="int" name="NOMEGAR">     0</i>
   <i type="int" name="NBANDSGW">    -1</i>
   <i type="int" name="NBANDSO">    -1</i>
   <i type="int" name="NBANDSV">    -1</i>
   <i type="int" name="NELM">     1</i>
   <i type="int" name="NELMHF">     1</i>
   <i type="int" name="DIM">     3</i>
   <i type="int" name="IESPILON">     4</i>
   <i type="int" name="ANTIRES">     0</i>
   <i name="OMEGAMAX">    -30.00000000</i>
   <i name="OMEGAMIN">    -30.00000000</i>
   <i name="OMEGATL">   -200.00000000</i>
   <i type="int" name="OMEGAGRID">     0</i>
   <i name="CSHIFT">     -0.10000000</i>
   <i type="logical" name="LSELFENERGY"> F  </i>
   <i type="logical" name="LSPECTRAL"> F  </i>
   <i type="logical" name="LSPECTRALGW"> F  </i>
   <i type="logical" name="LSINGLES"> F  </i>
   <i type="logical" name="LFERMIGW"> F  </i>
   <i type="logical" name="ODDONLYGW"> F  </i>
   <i type="logical" name="EVENONLYGW"> F  </i>
   <i type="int" name="NKREDLFX">     1</i>
   <i type="int" name="NKREDLFY">     1</i>
   <i type="int" name="NKREDLFZ">     1</i>
   <i type="int" name="MAXMEM">  2800</i>
   <i type="int" name="TELESCOPE">     0</i>
   <i type="int" name="NTAUPAR">    -1</i>
   <i type="int" name="NOMEGAPAR">    -1</i>
   <i name="DAMP_NEWTON">      0.80000001</i>
   <i name="LAMBDA">      1.00000000</i>
  </separator>
  <separator name="External order field" >
   <i name="OFIELD_KAPPA">      0.00000000</i>
   <v name="OFIELD_K">      0.00000000      0.00000000      0.00000000</v>
   <i name="OFIELD_Q6_NEAR">      0.00000000</i>
   <i name="OFIELD_Q6_FAR">      0.00000000</i>
   <i name="OFIELD_A">      0.00000000</i>
  </separator>
 </parameters>
 <atominfo>
  <atoms>       2 </atoms>
  <types>       1 </types>
  <array name="atoms" >
   <dimension dim="1">ion</dimension>
   <field type="string">element</field>
   <field type="int">atomtype</field>
   <set>
    <rc><c>Fe</c><c>   1</c></rc>
    <rc><c>Fe</c><c>   1</c></rc>
   </set>
  </array>
  <array name="atomtypes" >
   <dimension dim="1">type</dimension>
   <field type="int">atomspertype</field>
   <field type="string">element</field>
   <field>mass</field>
   <field>valence</field>
   <field type="string">pseudopotential</field>
   <set>
    <rc><c>   2</c><c>Fe</c><c>     55.84700000</c><c>      8.00000000</c><c>  PAW_PBE Fe 06Sep2000                  </c></rc>
   </set>
  </array>
 </atominfo>
 <structure name="initialpos" >
  <crystal>
   <varray name="basis" >
    <v>       2.26010000       0.00000000       0.00000000 </v>
    <v>      -1.13005000       1.95730402       0.00000000 </v>
    <v>       0.00000000       0.00000000       4.09631000 </v>
   </varray>
   <i name="volume">     18.12085804 </i>
   <varray name="rec_basis" >
    <v>       0.44245830       0.25545342       0.00000000 </v>
    <v>       0.00000000       0.51090684       0.00000000 </v>
    <v>       0.00000000       0.00000000       0.24412215 </v>
   </varray>
  </crystal>
  <varray name="positions" >
   <v>       0.00000000       0.00000000       0.00000000 </v>
   <v>       0.33333333       0.66666667       0.50000000 </v>
  </varray>
 </structure>
 <calculation>
  <scstep>
   <time name="dav">    0.77    0.79</time>
   <time name="total">    0.78    0.80</time>
   <energy>
    <i name="alphaZ">    152.56181769 </i>
    <i name="ewald">  -1274.62499761 </i>
    <i name="hartreedc">   -190.96788748 </i>
    <i name="XCdc">      9.27844556 </i>
    <i name="pawpsdc">   1109.69170683 </i>
    <i name="pawaedc">  -1125.09647265 </i>
    <i name="eentropy">     -0.00251293 </i>
    <i name="bandstr">    190.80540842 </i>
    <i name="atom">   1188.57490811 </i>
    <i name="e_fr_energy">     60.22041594 </i>
    <i name="e_wo_entrp">     60.22292887 </i>
    <i name="e_0_energy">     60.22125358 </i>
   </energy>
  </scstep>
  <scstep>
   <time name="dav">    0.67    0.67</time>
   <time name="total">    0.68    0.68</time>
   <energy>
    <i name="e_fr_energy">    -14.20451944 </i>
    <i name="e_wo_entrp">    -14.20201821 </i>
    <i name="e_0_energy">    -14.20368569 </i>
   </energy>
  </scstep>
  <scstep>
   <time name="dav">    0.78    0.78</time>
   <time name="total">    0.79    0.79</time>
   <energy>
    <i name="e_fr_energy">    -18.34981883 </i>
    <i name="e_wo_entrp">    -18.34980163 </i>
    <i name="e_0_energy">    -18.34981310 </i>
   </energy>
  </scstep>
  <scstep>
   <time name="dav">    0.73    0.73</time>
   <time name="total">    0.73    0.73</time>
   <energy>
    <i name="e_fr_energy">    -18.36486251 </i>
    <i name="e_wo_entrp">    -18.36488152 </i>
    <i name="e_0_energy">    -18.36486885 </i>
   </energy>
  </scstep>
  <scstep>
   <time name="dav">    0.79    0.79</time>
   <time name="total">    0.82    0.82</time>
   <energy>
    <i name="e_fr_energy">    -18.36487242 </i>
    <i name="e_wo_entrp">    -18.36489145 </i>
    <i name="e_0_energy">    -18.36487877 </i>
   </energy>
  </scstep>
  <scstep>
   <time name="dav">    0.90    0.90</time>
   <time name="total">    0.93    0.93</time>
   <energy>
    <i name="e_fr_energy">    -15.77950518 </i>
    <i name="e_wo_entrp">    -15.78128677 </i>
    <i name="e_0_energy">    -15.78009904 </i>
   </energy>
  </scstep>
  <scstep>
   <time name="dav">    0.79    0.79</time>
   <time name="total">    0.82    0.82</time>
   <energy>
    <i name="e_fr_energy">    -15.65866011 </i>
    <i name="e_wo_entrp">    -15.66021485 </i>
    <i name="e_0_energy">    -15.65917835 </i>
   </energy>
  </scstep>
  <scstep>
   <time name="dav">    0.82    0.82</time>
   <time name="total">    0.85    0.85</time>
   <energy>
    <i name="e_fr_energy">    -15.62262363 </i>
    <i name="e_wo_entrp">    -15.62426488 </i>
    <i name="e_0_energy">    -15.62317071 </i>
   </energy>
  </scstep>
  <scstep>
   <time name="dav">    0.84    0.84</time>
   <time name="total">    0.87    0.87</time>
   <energy>
    <i name="e_fr_energy">    -15.61641866 </i>
    <i name="e_wo_entrp">    -15.61807887 </i>
    <i name="e_0_energy">    -15.61697207 </i>
   </energy>
  </scstep>
  <scstep>
   <time name="dav">    0.70    0.70</time>
   <time name="total">    0.73    0.73</time>
   <energy>
    <i name="e_fr_energy">    -15.61644168 </i>
    <i name="e_wo_entrp">    -15.61810313 </i>
    <i name="e_0_energy">    -15.61699550 </i>
   </energy>
  </scstep>
  <scstep>
   <time name="dav">    0.72    0.72</time>
   <time name="total">    0.75    0.75</time>
   <energy>
    <i name="e_fr_energy">    -15.61642254 </i>
    <i name="e_wo_entrp">    -15.61808334 </i>
    <i name="e_0_energy">    -15.61697614 </i>
   </energy>
  </scstep>
  <scstep>
   <time name="dav">    0.59    0.59</time>
   <time name="total">    0.62    0.62</time>
   <energy>
    <i name="e_fr_energy">    -15.61642071 </i>
    <i name="e_wo_entrp">    -15.61808140 </i>
    <i name="e_0_energy">    -15.61697427 </i>
   </energy>
  </scstep>
  <scstep>
   <time name="dav">    0.50    0.50</time>
   <time name="total">    0.52    0.52</time>
   <energy>
    <i name="alphaZ">    152.56181769 </i>
    <i name="ewald">  -1274.62499761 </i>
    <i name="hartreedc">   -157.93155047 </i>
    <i name="XCdc">      7.72256772 </i>
    <i name="pawpsdc">   1638.22356547 </i>
    <i name="pawaedc">  -1657.10340114 </i>
    <i name="eentropy">      0.00166067 </i>
    <i name="bandstr">     86.95900842 </i>
    <i name="atom">   1188.57490811 </i>
    <i name="e_fr_energy">    -15.61642112 </i>
    <i name="e_wo_entrp">    -15.61808179 </i>
    <i name="e_0_energy">    -15.61697467 </i>
   </energy>
  </scstep>
  <structure>
   <crystal>
    <varray name="basis" >
     <v>       2.26010000       0.00000000       0.00000000 </v>
     <v>      -1.13005000       1.95730402       0.00000000 </v>
     <v>       0.00000000       0.00000000       4.09631000 </v>
    </varray>
    <i name="volume">     18.12085804 </i>
    <varray name="rec_basis" >
     <v>       0.44245830       0.25545342       0.00000000 </v>
     <v>       0.00000000       0.51090684       0.00000000 </v>
     <v>       0.00000000       0.00000000       0.24412215 </v>
    </varray>
   </crystal>
   <varray name="positions" >
    <v>       0.00000000       0.00000000       0.00000000 </v>
    <v>       0.33333333       0.66666667       0.50000000 </v>
   </varray>
  </structure>
  <varray name="forces" >
   <v>       0.00000000      -0.00000000       0.00000000 </v>
   <v>      -0.00000000       0.00000000      -0.00000000 </v>
  </varray>
  <varray name="stress" >
   <v>     766.69728280      -0.00000000       0.00000000 </v>
   <v>      -0.00000000     766.69728280       0.00000000 </v>
   <v>       0.00000000      -0.00000000     -85.56746912 </v>
  </varray>
  <energy>
   <i name="e_fr_energy">    -15.61642112 </i>
   <i name="e_wo_entrp">    -15.61808179 </i>
   <i name="e_0_energy">    -15.61697467 </i>
  </energy>
  <time name="totalsc">   10.18   10.20</time>
  <eigenvalues>
   <array>
    <dimension dim="1">band</dimension>
    <dimension dim="2">kpoint</dimension>
    <dimension dim="3">spin</dimension>
    <field>eigene</field>
    <field>occ</field>
    <set>
     <set comment="spin 1">
      <set comment="kpoint 1">
       <r>   -1.2557    1.0000 </r>
       <r>    2.6038    1.0000 </r>
       <r>    5.5131    1.0000 </r>
       <r>    6.4624    1.0000 </r>
       <r>    6.4624    1.0000 </r>
       <r>    6.7925    1.0000 </r>
       <r>    6.7925    1.0000 </r>
       <r>    7.1925    1.0000 </r>
       <r>    8.1035    1.0346 </r>
       <r>    8.1035    1.0346 </r>
       <r>    9.2273   -0.0000 </r>
       <r>    9.2274   -0.0000 </r>
       <r>   16.3741    0.0000 </r>
       <r>   32.1621    0.0000 </r>
       <r>   33.2091    0.0000 </r>
       <r>   36.3033    0.0000 </r>
       <r>   40.0653    0.0000 </r>
       <r>   40.0718    0.0000 </r>
       <r>   40.0718    0.0000 </r>
       <r>   40.7180    0.0000 </r>
       <r>   40.7181    0.0000 </r>
       <r>   42.8394    0.0000 </r>
       <r>   42.8394    0.0000 </r>
       <r>   43.8551    0.0000 </r>
       <r>   46.9434    0.0000 </r>
       <r>   46.9434    0.0000 </r>
       <r>   47.7332    0.0000 </r>
       <r>   51.8772    0.0000 </r>
       <r>   51.8773    0.0000 </r>
       <r>   53.4726    0.0000 </r>
       <r>   53.4726    0.0000 </r>
       <r>   55.9387    0.0000 </r>
       <r>   63.3423    0.0000 </r>
       <r>   64.0123    0.0000 </r>
       <r>   64.4829    0.0000 </r>
       <r>   64.4832    0.0000 </r>
       <r>   65.4357    0.0000 </r>
       <r>   67.7728    0.0000 </r>
       <r>   67.7729    0.0000 </r>
       <r>   68.5990    0.0000 </r>
      </set>
      <set comment="kpoint 2">
       <r>   -0.8853    1.0000 </r>
       <r>    2.8947    1.0000 </r>
       <r>    5.5819    1.0000 </r>
       <r>    6.3393    1.0000 </r>
       <r>    6.3486    1.0000 </r>
       <r>    6.6449    1.0000 </r>
       <r>    6.6955    1.0000 </r>
       <r>    7.0088    1.0000 </r>
       <r>    7.8919    1.0038 </r>
       <r>    7.9710    1.0138 </r>
       <r>    9.2601   -0.0000 </r>
       <r>   10.3596   -0.0000 </r>
       <r>   16.3953    0.0000 </r>
       <r>   32.1914    0.0000 </r>
       <r>   32.6017    0.0000 </r>
       <r>   35.0102    0.0000 </r>
       <r>   36.9584    0.0000 </r>
       <r>   38.4239    0.0000 </r>
       <r>   38.8622    0.0000 </r>
       <r>   39.8909    0.0000 </r>
       <r>   42.2538    0.0000 </r>
       <r>   43.2535    0.0000 </r>
       <r>   43.9152    0.0000 </r>
       <r>   44.5088    0.0000 </r>
       <r>   48.1856    0.0000 </r>
       <r>   48.4885    0.0000 </r>
       <r>   49.0190    0.0000 </r>
       <r>   49.2953    0.0000 </r>
       <r>   52.3697    0.0000 </r>
       <r>   54.9960    0.0000 </r>
       <r>   55.9331    0.0000 </r>
       <r>   57.7753    0.0000 </r>
       <r>   61.9174    0.0000 </r>
       <r>   63.4765    0.0000 </r>
       <r>   63.5790    0.0000 </r>
       <r>   63.8604    0.0000 </r>
       <r>   64.6469    0.0000 </r>
       <r>   68.3154    0.0000 </r>
       <r>   68.7095    0.0000 </r>
       <r>   69.5587    0.0000 </r>
      </set>
      <set comment="kpoint 3">
       <r>    0.1508    1.0000 </r>
       <r>    3.5636    1.0000 </r>
       <r>    5.1825    1.0000 </r>
       <r>    5.5022    1.0000 </r>
       <r>    6.0616    1.0000 </r>
       <r>    6.7328    1.0000 </r>
       <r>    7.3495    1.0000 </r>
       <r>    7.4014    1.0000 </r>
       <r>    7.6194    1.0000 </r>
       <r>    7.6594    1.0000 </r>
       <r>    9.3081   -0.0000 </r>
       <r>   12.3158   -0.0000 </r>
       <r>   16.4902    0.0000 </r>
       <r>   28.5690    0.0000 </r>
       <r>   33.4401    0.0000 </r>
       <r>   33.6807    0.0000 </r>
       <r>   33.8821    0.0000 </r>
       <r>   34.1319    0.0000 </r>
       <r>   39.1420    0.0000 </r>
       <r>   39.9214    0.0000 </r>
       <r>   40.5158    0.0000 </r>
       <r>   41.3673    0.0000 </r>
       <r>   44.8770    0.0000 </r>
       <r>   45.7202    0.0000 </r>
       <r>   48.9989    0.0000 </r>
       <r>   49.7444    0.0000 </r>
       <r>   51.0142    0.0000 </r>
       <r>   53.3485    0.0000 </r>
       <r>   55.6464    0.0000 </r>
       <r>   57.5411    0.0000 </r>
       <r>   58.6846    0.0000 </r>
       <r>   60.2688    0.0000 </r>
       <r>   60.9161    0.0000 </r>
       <r>   61.5993    0.0000 </r>
       <r>   61.7590    0.0000 </r>
       <r>   62.8443    0.0000 </r>
       <r>   65.9147    0.0000 </r>
       <r>   68.9735    0.0000 </r>
       <r>   69.1753    0.0000 </r>
       <r>   69.6046    0.0000 </r>
      </set>
      <set comment="kpoint 4">
       <r>    1.5704    1.0000 </r>
       <r>    3.7998    1.0000 </r>
       <r>    4.2526    1.0000 </r>
       <r>    5.5357    1.0000 </r>
       <r>    5.8730    1.0000 </r>
       <r>    6.7942    1.0000 </r>
       <r>    7.3052    1.0000 </r>
       <r>    7.6482    1.0000 </r>
       <r>    8.2769    0.7327 </r>
       <r>    8.4742    0.0406 </r>
       <r>    9.3220   -0.0000 </r>
       <r>   14.5358    0.0000 </r>
       <r>   16.7176    0.0000 </r>
       <r>   24.4019    0.0000 </r>
       <r>   29.8583    0.0000 </r>
       <r>   31.2300    0.0000 </r>
       <r>   32.0119    0.0000 </r>
       <r>   34.2344    0.0000 </r>
       <r>   37.6223    0.0000 </r>
       <r>   39.8682    0.0000 </r>
       <r>   40.6955    0.0000 </r>
       <r>   40.8727    0.0000 </r>
       <r>   42.2891    0.0000 </r>
       <r>   45.5319    0.0000 </r>
       <r>   52.6414    0.0000 </r>
       <r>   53.7847    0.0000 </r>
       <r>   54.7624    0.0000 </r>
       <r>   55.6784    0.0000 </r>
       <r>   56.0529    0.0000 </r>
       <r>   58.2591    0.0000 </r>
       <r>   59.4128    0.0000 </r>
       <r>   61.5337    0.0000 </r>
       <r>   61.5453    0.0000 </r>
       <r>   61.5799    0.0000 </r>
       <r>   63.0996    0.0000 </r>
       <r>   66.1765    0.0000 </r>
       <r>   66.3468    0.0000 </r>
       <r>   69.2986    0.0000 </r>
       <r>   69.5469    0.0000 </r>
       <r>   69.9513    0.0000 </r>
      </set>
      <set comment="kpoint 5">
       <r>    2.6930    1.0000 </r>
       <r>    3.4476    1.0000 </r>
       <r>    3.6285    1.0000 </r>
       <r>    5.7135    1.0000 </r>
       <r>    6.2616    1.0000 </r>
       <r>    6.4908    1.0000 </r>
       <r>    7.0099    1.0000 </r>
       <r>    9.1622   -0.0000 </r>
       <r>    9.2173   -0.0000 </r>
       <r>    9.3095   -0.0000 </r>
       <r>    9.3380   -0.0000 </r>
       <r>   16.6884    0.0000 </r>
       <r>   16.8985    0.0000 </r>
       <r>   21.2666    0.0000 </r>
       <r>   26.3920    0.0000 </r>
       <r>   29.0810    0.0000 </r>
       <r>   29.2010    0.0000 </r>
       <r>   33.5487    0.0000 </r>
       <r>   36.6540    0.0000 </r>
       <r>   40.0440    0.0000 </r>
       <r>   40.2442    0.0000 </r>
       <r>   41.7057    0.0000 </r>
       <r>   41.7965    0.0000 </r>
       <r>   45.4243    0.0000 </r>
       <r>   52.6134    0.0000 </r>
       <r>   54.6836    0.0000 </r>
       <r>   55.8420    0.0000 </r>
       <r>   59.0413    0.0000 </r>
       <r>   59.1503    0.0000 </r>
       <r>   59.1736    0.0000 </r>
       <r>   60.4033    0.0000 </r>
       <r>   62.8578    0.0000 </r>
       <r>   62.8598    0.0000 </r>
       <r>   63.5310    0.0000 </r>
       <r>   64.8891    0.0000 </r>
       <r>   66.3455    0.0000 </r>
       <r>   69.2248    0.0000 </r>
       <r>   69.5149    0.0000 </r>
       <r>   69.9466    0.0000 </r>
       <r>   70.6971    0.0000 </r>
      </set>
      <set comment="kpoint 6">
       <r>    2.9525    1.0000 </r>
       <r>    3.2374    1.0000 </r>
       <r>    3.3184    1.0000 </r>
       <r>    5.9543    1.0000 </r>
       <r>    6.4042    1.0000 </r>
       <r>    6.7808    1.0000 </r>
       <r>    6.8469    1.0000 </r>
       <r>    9.2941   -0.0000 </r>
       <r>    9.8093   -0.0000 </r>
       <r>    9.9173   -0.0000 </r>
       <r>   11.1265   -0.0000 </r>
       <r>   14.9206    0.0000 </r>
       <r>   19.1253    0.0000 </r>
       <r>   21.0454    0.0000 </r>
       <r>   23.6263    0.0000 </r>
       <r>   26.2326    0.0000 </r>
       <r>   28.0576    0.0000 </r>
       <r>   32.9208    0.0000 </r>
       <r>   36.3162    0.0000 </r>
       <r>   38.7790    0.0000 </r>
       <r>   40.0915    0.0000 </r>
       <r>   42.7591    0.0000 </r>
       <r>   44.3220    0.0000 </r>
       <r>   44.6854    0.0000 </r>
       <r>   49.2438    0.0000 </r>
       <r>   55.4295    0.0000 </r>
       <r>   56.3959    0.0000 </r>
       <r>   59.7194    0.0000 </r>
       <r>   60.9799    0.0000 </r>
       <r>   61.9972    0.0000 </r>
       <r>   63.2272    0.0000 </r>
       <r>   63.4183    0.0000 </r>
       <r>   63.4399    0.0000 </r>
       <r>   65.4495    0.0000 </r>
       <r>   66.5822    0.0000 </r>
       <r>   68.6403    0.0000 </r>
       <r>   68.8862    0.0000 </r>
       <r>   69.3150    0.0000 </r>
       <r>   72.0011    0.0000 </r>
       <r>   72.5147    0.0000 </r>
      </set>
      <set comment="kpoint 7">
       <r>   -0.1780    1.0000 </r>
       <r>    3.4022    1.0000 </r>
       <r>    5.4924    1.0000 </r>
       <r>    5.5151    1.0000 </r>
       <r>    6.3229    1.0000 </r>
       <r>    6.3684    1.0000 </r>
       <r>    7.1748    1.0000 </r>
       <r>    7.4170    1.0000 </r>
       <r>    7.4821    1.0000 </r>
       <r>    7.9013    1.0045 </r>
       <r>    9.2552   -0.0000 </r>
       <r>   11.7731   -0.0000 </r>
       <r>   16.4586    0.0000 </r>
       <r>   30.2783    0.0000 </r>
       <r>   31.8990    0.0000 </r>
       <r>   33.3246    0.0000 </r>
       <r>   35.4104    0.0000 </r>
       <r>   37.6313    0.0000 </r>
       <r>   37.6896    0.0000 </r>
       <r>   39.0002    0.0000 </r>
       <r>   39.6529    0.0000 </r>
       <r>   45.0901    0.0000 </r>
       <r>   45.7877    0.0000 </r>
       <r>   46.6396    0.0000 </r>
       <r>   47.0445    0.0000 </r>
       <r>   47.8185    0.0000 </r>
       <r>   48.1034    0.0000 </r>
       <r>   53.9120    0.0000 </r>
       <r>   56.0507    0.0000 </r>
       <r>   56.7826    0.0000 </r>
       <r>   56.7890    0.0000 </r>
       <r>   59.9134    0.0000 </r>
       <r>   60.5186    0.0000 </r>
       <r>   61.8955    0.0000 </r>
       <r>   62.9425    0.0000 </r>
       <r>   63.1999    0.0000 </r>
       <r>   64.6115    0.0000 </r>
       <r>   68.7579    0.0000 </r>
       <r>   69.4712    0.0000 </r>
       <r>   69.9366    0.0000 </r>
      </set>
      <set comment="kpoint 8">
       <r>    1.0880    1.0000 </r>
       <r>    4.0169    1.0000 </r>
       <r>    4.5920    1.0000 </r>
       <r>    5.2293    1.0000 </r>
       <r>    5.9723    1.0000 </r>
       <r>    6.8480    1.0000 </r>
       <r>    6.8526    1.0000 </r>
       <r>    7.5853    1.0000 </r>
       <r>    8.0309    1.0269 </r>
       <r>    8.3674    0.3626 </r>
       <r>    9.2284   -0.0000 </r>
       <r>   13.7644   -0.0000 </r>
       <r>   16.6697    0.0000 </r>
       <r>   26.5367    0.0000 </r>
       <r>   29.3734    0.0000 </r>
       <r>   31.7470    0.0000 </r>
       <r>   33.7678    0.0000 </r>
       <r>   35.0752    0.0000 </r>
       <r>   37.6537    0.0000 </r>
       <r>   38.2489    0.0000 </r>
       <r>   39.4757    0.0000 </r>
       <r>   44.3713    0.0000 </r>
       <r>   44.4280    0.0000 </r>
       <r>   46.3595    0.0000 </r>
       <r>   49.3274    0.0000 </r>
       <r>   49.9819    0.0000 </r>
       <r>   52.3556    0.0000 </r>
       <r>   56.2780    0.0000 </r>
       <r>   57.6564    0.0000 </r>
       <r>   58.5031    0.0000 </r>
       <r>   59.1279    0.0000 </r>
       <r>   60.9296    0.0000 </r>
       <r>   61.1416    0.0000 </r>
       <r>   61.8639    0.0000 </r>
       <r>   63.3869    0.0000 </r>
       <r>   63.4471    0.0000 </r>
       <r>   65.5178    0.0000 </r>
       <r>   68.8015    0.0000 </r>
       <r>   70.1382    0.0000 </r>
       <r>   70.5138    0.0000 </r>
      </set>
      <set comment="kpoint 9">
       <r>    2.4833    1.0000 </r>
       <r>    3.8532    1.0000 </r>
       <r>    3.9106    1.0000 </r>
       <r>    5.3759    1.0000 </r>
       <r>    6.1062    1.0000 </r>
       <r>    6.3645    1.0000 </r>
       <r>    7.1489    1.0000 </r>
       <r>    7.8178    1.0008 </r>
       <r>    8.9625   -0.0000 </r>
       <r>    9.1943   -0.0000 </r>
       <r>    9.5170   -0.0000 </r>
       <r>   16.0333    0.0000 </r>
       <r>   17.0499    0.0000 </r>
       <r>   22.6488    0.0000 </r>
       <r>   27.5444    0.0000 </r>
       <r>   28.2033    0.0000 </r>
       <r>   31.6416    0.0000 </r>
       <r>   32.8036    0.0000 </r>
       <r>   37.6024    0.0000 </r>
       <r>   38.9886    0.0000 </r>
       <r>   39.1143    0.0000 </r>
       <r>   43.3867    0.0000 </r>
       <r>   43.7629    0.0000 </r>
       <r>   47.0731    0.0000 </r>
       <r>   51.3735    0.0000 </r>
       <r>   53.7465    0.0000 </r>
       <r>   54.9571    0.0000 </r>
       <r>   54.9765    0.0000 </r>
       <r>   57.6903    0.0000 </r>
       <r>   59.6234    0.0000 </r>
       <r>   59.8316    0.0000 </r>
       <r>   62.5931    0.0000 </r>
       <r>   63.4502    0.0000 </r>
       <r>   63.9487    0.0000 </r>
       <r>   64.1453    0.0000 </r>
       <r>   65.8111    0.0000 </r>
       <r>   68.4795    0.0000 </r>
       <r>   69.5784    0.0000 </r>
       <r>   69.6724    0.0000 </r>
       <r>   70.8472    0.0000 </r>
      </set>
      <set comment="kpoint 10">
       <r>    3.1675    1.0000 </r>
       <r>    3.5021    1.0000 </r>
       <r>    3.5084    1.0000 </r>
       <r>    5.9115    1.0000 </r>
       <r>    6.0378    1.0000 </r>
       <r>    6.6015    1.0000 </r>
       <r>    6.7935    1.0000 </r>
       <r>    8.9676   -0.0000 </r>
       <r>    9.1597   -0.0000 </r>
       <r>    9.5947   -0.0000 </r>
       <r>   10.9335   -0.0000 </r>
       <r>   16.3938    0.0000 </r>
       <r>   18.4113    0.0000 </r>
       <r>   20.8974    0.0000 </r>
       <r>   25.0618    0.0000 </r>
       <r>   26.0506    0.0000 </r>
       <r>   28.2656    0.0000 </r>
       <r>   31.8742    0.0000 </r>
       <r>   36.7035    0.0000 </r>
       <r>   38.5250    0.0000 </r>
       <r>   40.8438    0.0000 </r>
       <r>   43.5352    0.0000 </r>
       <r>   44.3189    0.0000 </r>
       <r>   46.2193    0.0000 </r>
       <r>   51.2655    0.0000 </r>
       <r>   53.9821    0.0000 </r>
       <r>   55.4301    0.0000 </r>
       <r>   57.2174    0.0000 </r>
       <r>   59.4128    0.0000 </r>
       <r>   60.7075    0.0000 </r>
       <r>   61.9504    0.0000 </r>
       <r>   63.1019    0.0000 </r>
       <r>   63.5636    0.0000 </r>
       <r>   66.2359    0.0000 </r>
       <r>   67.2318    0.0000 </r>
       <r>   67.5879    0.0000 </r>
       <r>   68.2052    0.0000 </r>
       <r>   70.5552    0.0000 </r>
       <r>   70.6561    0.0000 </r>
       <r>   72.3500    0.0000 </r>
      </set>
      <set comment="kpoint 11">
       <r>    3.1685    1.0000 </r>
       <r>    3.3675    1.0000 </r>
       <r>    3.4570    1.0000 </r>
       <r>    5.9232    1.0000 </r>
       <r>    6.4379    1.0000 </r>
       <r>    6.6583    1.0000 </r>
       <r>    6.6841    1.0000 </r>
       <r>    9.1454   -0.0000 </r>
       <r>    9.6328   -0.0000 </r>
       <r>    9.6689   -0.0000 </r>
       <r>   12.2797   -0.0000 </r>
       <r>   14.7079    0.0000 </r>
       <r>   20.0216    0.0000 </r>
       <r>   21.5058    0.0000 </r>
       <r>   23.1970    0.0000 </r>
       <r>   25.0367    0.0000 </r>
       <r>   26.8131    0.0000 </r>
       <r>   31.5387    0.0000 </r>
       <r>   36.3022    0.0000 </r>
       <r>   38.3716    0.0000 </r>
       <r>   41.2995    0.0000 </r>
       <r>   44.1370    0.0000 </r>
       <r>   45.1945    0.0000 </r>
       <r>   45.6915    0.0000 </r>
       <r>   49.1449    0.0000 </r>
       <r>   54.9531    0.0000 </r>
       <r>   55.8526    0.0000 </r>
       <r>   57.5510    0.0000 </r>
       <r>   61.2060    0.0000 </r>
       <r>   61.2656    0.0000 </r>
       <r>   63.4886    0.0000 </r>
       <r>   63.5794    0.0000 </r>
       <r>   63.9679    0.0000 </r>
       <r>   65.4139    0.0000 </r>
       <r>   67.0487    0.0000 </r>
       <r>   69.7561    0.0000 </r>
       <r>   69.9256    0.0000 </r>
       <r>   70.1431    0.0000 </r>
       <r>   70.2060    0.0000 </r>
       <r>   72.4762    0.0000 </r>
      </set>
      <set comment="kpoint 12">
       <r>    2.4427    1.0000 </r>
       <r>    4.0784    1.0000 </r>
       <r>    4.5388    1.0000 </r>
       <r>    4.6921    1.0000 </r>
       <r>    6.0669    1.0000 </r>
       <r>    6.3087    1.0000 </r>
       <r>    7.1269    1.0000 </r>
       <r>    7.2852    1.0000 </r>
       <r>    8.9310   -0.0001 </r>
       <r>    9.0608   -0.0000 </r>
       <r>    9.6056   -0.0000 </r>
       <r>   15.7668    0.0000 </r>
       <r>   17.2052    0.0000 </r>
       <r>   24.4008    0.0000 </r>
       <r>   25.3751    0.0000 </r>
       <r>   29.7333    0.0000 </r>
       <r>   31.4669    0.0000 </r>
       <r>   34.1503    0.0000 </r>
       <r>   34.7341    0.0000 </r>
       <r>   38.4310    0.0000 </r>
       <r>   40.9832    0.0000 </r>
       <r>   45.5138    0.0000 </r>
       <r>   46.3655    0.0000 </r>
       <r>   47.9062    0.0000 </r>
       <r>   48.9932    0.0000 </r>
       <r>   51.0687    0.0000 </r>
       <r>   51.9678    0.0000 </r>
       <r>   56.2448    0.0000 </r>
       <r>   58.5421    0.0000 </r>
       <r>   58.6517    0.0000 </r>
       <r>   59.0956    0.0000 </r>
       <r>   62.8814    0.0000 </r>
       <r>   62.9212    0.0000 </r>
       <r>   64.6250    0.0000 </r>
       <r>   65.3870    0.0000 </r>
       <r>   66.5170    0.0000 </r>
       <r>   66.7630    0.0000 </r>
       <r>   68.8297    0.0000 </r>
       <r>   69.5023    0.0000 </r>
       <r>   72.1863    0.0000 </r>
      </set>
      <set comment="kpoint 13">
       <r>    3.6496    1.0000 </r>
       <r>    3.7548    1.0000 </r>
       <r>    4.1283    1.0000 </r>
       <r>    5.0411    1.0000 </r>
       <r>    5.9758    1.0000 </r>
       <r>    6.4196    1.0000 </r>
       <r>    6.7870    1.0000 </r>
       <r>    7.8405    1.0013 </r>
       <r>    8.9182   -0.0001 </r>
       <r>    9.4957   -0.0000 </r>
       <r>   11.1338   -0.0000 </r>
       <r>   17.8988    0.0000 </r>
       <r>   18.0868    0.0000 </r>
       <r>   21.3266    0.0000 </r>
       <r>   23.5787    0.0000 </r>
       <r>   27.0365    0.0000 </r>
       <r>   29.7098    0.0000 </r>
       <r>   30.4393    0.0000 </r>
       <r>   33.4536    0.0000 </r>
       <r>   40.7993    0.0000 </r>
       <r>   41.4753    0.0000 </r>
       <r>   45.3420    0.0000 </r>
       <r>   47.3308    0.0000 </r>
       <r>   49.2691    0.0000 </r>
       <r>   49.8800    0.0000 </r>
       <r>   51.8923    0.0000 </r>
       <r>   53.2579    0.0000 </r>
       <r>   54.3488    0.0000 </r>
       <r>   57.6394    0.0000 </r>
       <r>   59.2481    0.0000 </r>
       <r>   61.5927    0.0000 </r>
       <r>   63.0933    0.0000 </r>
       <r>   63.8841    0.0000 </r>
       <r>   66.1760    0.0000 </r>
       <r>   67.4924    0.0000 </r>
       <r>   67.5253    0.0000 </r>
       <r>   69.3932    0.0000 </r>
       <r>   69.9170    0.0000 </r>
       <r>   71.8396    0.0000 </r>
       <r>   73.1921    0.0000 </r>
      </set>
      <set comment="kpoint 14">
       <r>    3.6130    1.0000 </r>
       <r>    3.7873    1.0000 </r>
       <r>    4.0252    1.0000 </r>
       <r>    5.7022    1.0000 </r>
       <r>    5.9101    1.0000 </r>
       <r>    6.3391    1.0000 </r>
       <r>    6.7452    1.0000 </r>
       <r>    8.7227   -0.0096 </r>
       <r>    8.8369   -0.0011 </r>
       <r>    9.4603   -0.0000 </r>
       <r>   12.9348   -0.0000 </r>
       <r>   16.2858    0.0000 </r>
       <r>   20.4509    0.0000 </r>
       <r>   21.4946    0.0000 </r>
       <r>   22.5947    0.0000 </r>
       <r>   24.2738    0.0000 </r>
       <r>   27.3146    0.0000 </r>
       <r>   29.0176    0.0000 </r>
       <r>   32.7834    0.0000 </r>
       <r>   41.5639    0.0000 </r>
       <r>   43.1775    0.0000 </r>
       <r>   45.3878    0.0000 </r>
       <r>   46.4066    0.0000 </r>
       <r>   47.7906    0.0000 </r>
       <r>   51.7664    0.0000 </r>
       <r>   52.3640    0.0000 </r>
       <r>   53.8537    0.0000 </r>
       <r>   55.3836    0.0000 </r>
       <r>   59.3198    0.0000 </r>
       <r>   60.1903    0.0000 </r>
       <r>   61.0504    0.0000 </r>
       <r>   63.2296    0.0000 </r>
       <r>   63.7394    0.0000 </r>
       <r>   64.4675    0.0000 </r>
       <r>   68.2683    0.0000 </r>
       <r>   69.4652    0.0000 </r>
       <r>   70.3376    0.0000 </r>
       <r>   71.6249    0.0000 </r>
       <r>   71.6451    0.0000 </r>
       <r>   71.8596    0.0000 </r>
      </set>
      <set comment="kpoint 15">
       <r>    3.7852    1.0000 </r>
       <r>    4.3437    1.0000 </r>
       <r>    4.7157    1.0000 </r>
       <r>    4.7553    1.0000 </r>
       <r>    5.7878    1.0000 </r>
       <r>    6.2759    1.0000 </r>
       <r>    6.7733    1.0000 </r>
       <r>    8.1533    1.0124 </r>
       <r>    8.6758   -0.0183 </r>
       <r>    9.4083   -0.0000 </r>
       <r>   13.1120   -0.0000 </r>
       <r>   18.5142    0.0000 </r>
       <r>   19.2064    0.0000 </r>
       <r>   20.5051    0.0000 </r>
       <r>   22.2896    0.0000 </r>
       <r>   26.2772    0.0000 </r>
       <r>   26.6021    0.0000 </r>
       <r>   29.1670    0.0000 </r>
       <r>   30.0238    0.0000 </r>
       <r>   42.5506    0.0000 </r>
       <r>   43.5234    0.0000 </r>
       <r>   48.3264    0.0000 </r>
       <r>   48.9542    0.0000 </r>
       <r>   49.3127    0.0000 </r>
       <r>   49.7328    0.0000 </r>
       <r>   50.2401    0.0000 </r>
       <r>   53.2427    0.0000 </r>
       <r>   55.6738    0.0000 </r>
       <r>   55.8767    0.0000 </r>
       <r>   60.1427    0.0000 </r>
       <r>   60.3451    0.0000 </r>
       <r>   63.1226    0.0000 </r>
       <r>   63.8520    0.0000 </r>
       <r>   64.3772    0.0000 </r>
       <r>   68.4939    0.0000 </r>
       <r>   69.6063    0.0000 </r>
       <r>   69.7625    0.0000 </r>
       <r>   70.4202    0.0000 </r>
       <r>   71.4873    0.0000 </r>
       <r>   73.8950    0.0000 </r>
      </set>
      <set comment="kpoint 16">
       <r>    3.8412    1.0000 </r>
       <r>    4.4515    1.0000 </r>
       <r>    4.5948    1.0000 </r>
       <r>    5.1672    1.0000 </r>
       <r>    5.8798    1.0000 </r>
       <r>    5.8828    1.0000 </r>
       <r>    6.9376    1.0000 </r>
       <r>    8.5825   -0.0354 </r>
       <r>    8.6173   -0.0312 </r>
       <r>    8.9982   -0.0000 </r>
       <r>   15.0012    0.0000 </r>
       <r>   16.5369    0.0000 </r>
       <r>   18.8178    0.0000 </r>
       <r>   22.6182    0.0000 </r>
       <r>   23.2660    0.0000 </r>
       <r>   24.1166    0.0000 </r>
       <r>   26.1766    0.0000 </r>
       <r>   27.3539    0.0000 </r>
       <r>   29.4100    0.0000 </r>
       <r>   42.8718    0.0000 </r>
       <r>   46.2361    0.0000 </r>
       <r>   46.9652    0.0000 </r>
       <r>   48.3926    0.0000 </r>
       <r>   48.6355    0.0000 </r>
       <r>   50.1593    0.0000 </r>
       <r>   51.6852    0.0000 </r>
       <r>   55.0538    0.0000 </r>
       <r>   55.8102    0.0000 </r>
       <r>   56.0326    0.0000 </r>
       <r>   59.3716    0.0000 </r>
       <r>   60.2609    0.0000 </r>
       <r>   60.9974    0.0000 </r>
       <r>   63.6984    0.0000 </r>
       <r>   63.7204    0.0000 </r>
       <r>   68.0362    0.0000 </r>
       <r>   69.7680    0.0000 </r>
       <r>   70.6580    0.0000 </r>
       <r>   70.9508    0.0000 </r>
       <r>   72.1925    0.0000 </r>
       <r>   73.0495    0.0000 </r>
      </set>
      <set comment="kpoint 17">
       <r>   -1.1713    1.0000 </r>
       <r>    2.5768    1.0000 </r>
       <r>    5.4912    1.0000 </r>
       <r>    6.4566    1.0000 </r>
       <r>    6.4566    1.0000 </r>
       <r>    6.7763    1.0000 </r>
       <r>    6.7763    1.0000 </r>
       <r>    6.9783    1.0000 </r>
       <r>    8.1400    1.0220 </r>
       <r>    8.1400    1.0220 </r>
       <r>    9.2159   -0.0000 </r>
       <r>    9.2160   -0.0000 </r>
       <r>   16.7408    0.0000 </r>
       <r>   31.4921    0.0000 </r>
       <r>   33.3793    0.0000 </r>
       <r>   36.1333    0.0000 </r>
       <r>   40.0953    0.0000 </r>
       <r>   40.0953    0.0000 </r>
       <r>   40.5105    0.0000 </r>
       <r>   40.7171    0.0000 </r>
       <r>   40.7172    0.0000 </r>
       <r>   42.8284    0.0000 </r>
       <r>   42.8284    0.0000 </r>
       <r>   44.1296    0.0000 </r>
       <r>   46.6625    0.0000 </r>
       <r>   46.6625    0.0000 </r>
       <r>   47.9544    0.0000 </r>
       <r>   52.0883    0.0000 </r>
       <r>   52.0884    0.0000 </r>
       <r>   53.8198    0.0000 </r>
       <r>   53.8199    0.0000 </r>
       <r>   55.6867    0.0000 </r>
       <r>   62.2121    0.0000 </r>
       <r>   64.1774    0.0000 </r>
       <r>   64.3339    0.0000 </r>
       <r>   64.3342    0.0000 </r>
       <r>   66.5858    0.0000 </r>
       <r>   66.5859    0.0000 </r>
       <r>   66.6534    0.0000 </r>
       <r>   67.0283    0.0000 </r>
      </set>
      <set comment="kpoint 18">
       <r>   -0.8031    1.0000 </r>
       <r>    2.8717    1.0000 </r>
       <r>    5.5659    1.0000 </r>
       <r>    6.1897    1.0000 </r>
       <r>    6.3167    1.0000 </r>
       <r>    6.6695    1.0000 </r>
       <r>    6.6871    1.0000 </r>
       <r>    6.9910    1.0000 </r>
       <r>    7.9388    1.0086 </r>
       <r>    8.0137    1.0229 </r>
       <r>    9.2451   -0.0000 </r>
       <r>   10.2131   -0.0000 </r>
       <r>   16.7976    0.0000 </r>
       <r>   31.7433    0.0000 </r>
       <r>   32.5029    0.0000 </r>
       <r>   34.9489    0.0000 </r>
       <r>   37.0238    0.0000 </r>
       <r>   37.9442    0.0000 </r>
       <r>   39.3344    0.0000 </r>
       <r>   40.2283    0.0000 </r>
       <r>   42.0223    0.0000 </r>
       <r>   43.3865    0.0000 </r>
       <r>   43.9805    0.0000 </r>
       <r>   44.6754    0.0000 </r>
       <r>   47.8912    0.0000 </r>
       <r>   48.2410    0.0000 </r>
       <r>   49.5399    0.0000 </r>
       <r>   49.7241    0.0000 </r>
       <r>   52.2613    0.0000 </r>
       <r>   55.1335    0.0000 </r>
       <r>   56.1716    0.0000 </r>
       <r>   57.5847    0.0000 </r>
       <r>   60.6850    0.0000 </r>
       <r>   63.1808    0.0000 </r>
       <r>   63.8558    0.0000 </r>
       <r>   64.1050    0.0000 </r>
       <r>   65.3118    0.0000 </r>
       <r>   67.1656    0.0000 </r>
       <r>   67.3181    0.0000 </r>
       <r>   68.6163    0.0000 </r>
      </set>
      <set comment="kpoint 19">
       <r>    0.2236    1.0000 </r>
       <r>    3.5537    1.0000 </r>
       <r>    5.1015    1.0000 </r>
       <r>    5.5179    1.0000 </r>
       <r>    6.0282    1.0000 </r>
       <r>    6.6666    1.0000 </r>
       <r>    7.3147    1.0000 </r>
       <r>    7.5115    1.0000 </r>
       <r>    7.5748    1.0000 </r>
       <r>    7.7589    1.0002 </r>
       <r>    9.2868   -0.0000 </r>
       <r>   11.9654   -0.0000 </r>
       <r>   17.0232    0.0000 </r>
       <r>   28.6225    0.0000 </r>
       <r>   32.6340    0.0000 </r>
       <r>   33.6059    0.0000 </r>
       <r>   33.9732    0.0000 </r>
       <r>   34.3009    0.0000 </r>
       <r>   38.6896    0.0000 </r>
       <r>   40.3331    0.0000 </r>
       <r>   40.9607    0.0000 </r>
       <r>   41.1224    0.0000 </r>
       <r>   45.1721    0.0000 </r>
       <r>   46.1426    0.0000 </r>
       <r>   49.2261    0.0000 </r>
       <r>   49.6680    0.0000 </r>
       <r>   50.8290    0.0000 </r>
       <r>   53.4043    0.0000 </r>
       <r>   55.2032    0.0000 </r>
       <r>   57.8413    0.0000 </r>
       <r>   58.9461    0.0000 </r>
       <r>   59.4159    0.0000 </r>
       <r>   60.3602    0.0000 </r>
       <r>   61.4326    0.0000 </r>
       <r>   62.4086    0.0000 </r>
       <r>   63.3547    0.0000 </r>
       <r>   65.7828    0.0000 </r>
       <r>   67.7552    0.0000 </r>
       <r>   68.3508    0.0000 </r>
       <r>   70.5860    0.0000 </r>
      </set>
      <set comment="kpoint 20">
       <r>    1.6149    1.0000 </r>
       <r>    3.7944    1.0000 </r>
       <r>    4.2380    1.0000 </r>
       <r>    5.5142    1.0000 </r>
       <r>    5.8533    1.0000 </r>
       <r>    6.8210    1.0000 </r>
       <r>    7.3270    1.0000 </r>
       <r>    7.6917    1.0000 </r>
       <r>    8.2858    0.6994 </r>
       <r>    8.4604    0.0670 </r>
       <r>    9.2965   -0.0000 </r>
       <r>   13.8246    0.0000 </r>
       <r>   17.5538    0.0000 </r>
       <r>   24.4635    0.0000 </r>
       <r>   29.5156    0.0000 </r>
       <r>   31.3413    0.0000 </r>
       <r>   32.1719    0.0000 </r>
       <r>   34.0446    0.0000 </r>
       <r>   37.2525    0.0000 </r>
       <r>   39.4583    0.0000 </r>
       <r>   39.8412    0.0000 </r>
       <r>   41.7954    0.0000 </r>
       <r>   43.1384    0.0000 </r>
       <r>   46.0817    0.0000 </r>
       <r>   52.7214    0.0000 </r>
       <r>   53.1707    0.0000 </r>
       <r>   54.1884    0.0000 </r>
       <r>   54.3792    0.0000 </r>
       <r>   57.7137    0.0000 </r>
       <r>   58.4591    0.0000 </r>
       <r>   59.6488    0.0000 </r>
       <r>   61.0916    0.0000 </r>
       <r>   61.4472    0.0000 </r>
       <r>   61.5840    0.0000 </r>
       <r>   63.4878    0.0000 </r>
       <r>   65.4096    0.0000 </r>
       <r>   66.7307    0.0000 </r>
       <r>   68.4189    0.0000 </r>
       <r>   69.0582    0.0000 </r>
       <r>   70.6572    0.0000 </r>
      </set>
      <set comment="kpoint 21">
       <r>    2.6641    1.0000 </r>
       <r>    3.3891    1.0000 </r>
       <r>    3.7584    1.0000 </r>
       <r>    5.4298    1.0000 </r>
       <r>    6.4217    1.0000 </r>
       <r>    6.6954    1.0000 </r>
       <r>    7.0478    1.0000 </r>
       <r>    9.1175   -0.0000 </r>
       <r>    9.1803   -0.0000 </r>
       <r>    9.2348   -0.0000 </r>
       <r>    9.3999   -0.0000 </r>
       <r>   15.3375    0.0000 </r>
       <r>   18.2831    0.0000 </r>
       <r>   21.3530    0.0000 </r>
       <r>   26.0835    0.0000 </r>
       <r>   29.3270    0.0000 </r>
       <r>   29.3928    0.0000 </r>
       <r>   33.5330    0.0000 </r>
       <r>   36.5390    0.0000 </r>
       <r>   38.6374    0.0000 </r>
       <r>   40.0421    0.0000 </r>
       <r>   41.7010    0.0000 </r>
       <r>   43.2057    0.0000 </r>
       <r>   45.9744    0.0000 </r>
       <r>   51.5540    0.0000 </r>
       <r>   55.5298    0.0000 </r>
       <r>   55.7880    0.0000 </r>
       <r>   58.0054    0.0000 </r>
       <r>   58.3873    0.0000 </r>
       <r>   60.3464    0.0000 </r>
       <r>   60.8112    0.0000 </r>
       <r>   62.8250    0.0000 </r>
       <r>   62.8969    0.0000 </r>
       <r>   63.7761    0.0000 </r>
       <r>   64.8892    0.0000 </r>
       <r>   66.2978    0.0000 </r>
       <r>   68.0903    0.0000 </r>
       <r>   69.3975    0.0000 </r>
       <r>   70.4374    0.0000 </r>
       <r>   70.9768    0.0000 </r>
      </set>
      <set comment="kpoint 22">
       <r>    2.9057    1.0000 </r>
       <r>    3.0418    1.0000 </r>
       <r>    3.6151    1.0000 </r>
       <r>    5.4937    1.0000 </r>
       <r>    6.6200    1.0000 </r>
       <r>    6.8880    1.0000 </r>
       <r>    7.1349    1.0000 </r>
       <r>    9.2316   -0.0000 </r>
       <r>    9.8114   -0.0000 </r>
       <r>    9.9175   -0.0000 </r>
       <r>   11.0216   -0.0000 </r>
       <r>   14.6921    0.0000 </r>
       <r>   19.1065    0.0000 </r>
       <r>   21.0428    0.0000 </r>
       <r>   23.7623    0.0000 </r>
       <r>   26.5431    0.0000 </r>
       <r>   28.1920    0.0000 </r>
       <r>   32.9446    0.0000 </r>
       <r>   36.2653    0.0000 </r>
       <r>   37.7480    0.0000 </r>
       <r>   41.1379    0.0000 </r>
       <r>   41.6411    0.0000 </r>
       <r>   43.4294    0.0000 </r>
       <r>   46.5324    0.0000 </r>
       <r>   49.1641    0.0000 </r>
       <r>   55.8459    0.0000 </r>
       <r>   56.0196    0.0000 </r>
       <r>   58.9330    0.0000 </r>
       <r>   60.9310    0.0000 </r>
       <r>   62.1647    0.0000 </r>
       <r>   63.1345    0.0000 </r>
       <r>   63.3884    0.0000 </r>
       <r>   64.0818    0.0000 </r>
       <r>   65.2322    0.0000 </r>
       <r>   67.0204    0.0000 </r>
       <r>   68.4192    0.0000 </r>
       <r>   68.9675    0.0000 </r>
       <r>   70.0212    0.0000 </r>
       <r>   71.8233    0.0000 </r>
       <r>   71.9549    0.0000 </r>
      </set>
      <set comment="kpoint 23">
       <r>   -0.1014    1.0000 </r>
       <r>    3.3882    1.0000 </r>
       <r>    5.3910    1.0000 </r>
       <r>    5.5248    1.0000 </r>
       <r>    6.2431    1.0000 </r>
       <r>    6.3888    1.0000 </r>
       <r>    7.1529    1.0000 </r>
       <r>    7.4051    1.0000 </r>
       <r>    7.5702    1.0000 </r>
       <r>    7.9443    1.0093 </r>
       <r>    9.2366   -0.0000 </r>
       <r>   11.4862   -0.0000 </r>
       <r>   16.9436    0.0000 </r>
       <r>   30.3027    0.0000 </r>
       <r>   31.9461    0.0000 </r>
       <r>   32.7196    0.0000 </r>
       <r>   35.0635    0.0000 </r>
       <r>   37.8118    0.0000 </r>
       <r>   38.0840    0.0000 </r>
       <r>   38.3273    0.0000 </r>
       <r>   40.4454    0.0000 </r>
       <r>   45.1520    0.0000 </r>
       <r>   45.7475    0.0000 </r>
       <r>   46.3861    0.0000 </r>
       <r>   46.9525    0.0000 </r>
       <r>   48.2981    0.0000 </r>
       <r>   48.5965    0.0000 </r>
       <r>   53.7657    0.0000 </r>
       <r>   55.6887    0.0000 </r>
       <r>   56.8692    0.0000 </r>
       <r>   57.2588    0.0000 </r>
       <r>   59.3310    0.0000 </r>
       <r>   59.5880    0.0000 </r>
       <r>   62.7272    0.0000 </r>
       <r>   62.9665    0.0000 </r>
       <r>   63.3052    0.0000 </r>
       <r>   64.7693    0.0000 </r>
       <r>   67.4172    0.0000 </r>
       <r>   68.6566    0.0000 </r>
       <r>   69.9760    0.0000 </r>
      </set>
      <set comment="kpoint 24">
       <r>    1.1477    1.0000 </r>
       <r>    4.0195    1.0000 </r>
       <r>    4.5367    1.0000 </r>
       <r>    5.2534    1.0000 </r>
       <r>    5.9417    1.0000 </r>
       <r>    6.6029    1.0000 </r>
       <r>    7.1455    1.0000 </r>
       <r>    7.5499    1.0000 </r>
       <r>    8.0904    1.0355 </r>
       <r>    8.3469    0.4472 </r>
       <r>    9.2122   -0.0000 </r>
       <r>   13.2177   -0.0000 </r>
       <r>   17.3642    0.0000 </r>
       <r>   26.5998    0.0000 </r>
       <r>   29.4313    0.0000 </r>
       <r>   31.4909    0.0000 </r>
       <r>   33.2799    0.0000 </r>
       <r>   35.4022    0.0000 </r>
       <r>   36.7324    0.0000 </r>
       <r>   38.7371    0.0000 </r>
       <r>   39.9821    0.0000 </r>
       <r>   44.0434    0.0000 </r>
       <r>   44.9132    0.0000 </r>
       <r>   46.8483    0.0000 </r>
       <r>   49.1288    0.0000 </r>
       <r>   50.0098    0.0000 </r>
       <r>   52.5175    0.0000 </r>
       <r>   55.3542    0.0000 </r>
       <r>   57.6616    0.0000 </r>
       <r>   58.4796    0.0000 </r>
       <r>   59.7015    0.0000 </r>
       <r>   60.7605    0.0000 </r>
       <r>   60.9278    0.0000 </r>
       <r>   61.9736    0.0000 </r>
       <r>   63.2074    0.0000 </r>
       <r>   63.8092    0.0000 </r>
       <r>   65.6760    0.0000 </r>
       <r>   68.0183    0.0000 </r>
       <r>   69.5133    0.0000 </r>
       <r>   70.2883    0.0000 </r>
      </set>
      <set comment="kpoint 25">
       <r>    2.4944    1.0000 </r>
       <r>    3.8062    1.0000 </r>
       <r>    3.9736    1.0000 </r>
       <r>    5.3213    1.0000 </r>
       <r>    6.0630    1.0000 </r>
       <r>    6.5005    1.0000 </r>
       <r>    7.1610    1.0000 </r>
       <r>    7.8343    1.0012 </r>
       <r>    8.9787   -0.0000 </r>
       <r>    9.1093   -0.0000 </r>
       <r>    9.5533   -0.0000 </r>
       <r>   14.9840    0.0000 </r>
       <r>   18.1973    0.0000 </r>
       <r>   22.7164    0.0000 </r>
       <r>   27.5084    0.0000 </r>
       <r>   28.0479    0.0000 </r>
       <r>   31.8078    0.0000 </r>
       <r>   32.7320    0.0000 </r>
       <r>   37.4250    0.0000 </r>
       <r>   38.1329    0.0000 </r>
       <r>   39.5776    0.0000 </r>
       <r>   43.3110    0.0000 </r>
       <r>   44.4680    0.0000 </r>
       <r>   47.5597    0.0000 </r>
       <r>   50.9819    0.0000 </r>
       <r>   52.4666    0.0000 </r>
       <r>   54.7552    0.0000 </r>
       <r>   56.4126    0.0000 </r>
       <r>   57.8146    0.0000 </r>
       <r>   59.0248    0.0000 </r>
       <r>   60.3609    0.0000 </r>
       <r>   62.4779    0.0000 </r>
       <r>   63.1441    0.0000 </r>
       <r>   63.8801    0.0000 </r>
       <r>   64.7166    0.0000 </r>
       <r>   65.8066    0.0000 </r>
       <r>   67.8100    0.0000 </r>
       <r>   69.4551    0.0000 </r>
       <r>   69.7784    0.0000 </r>
       <r>   70.4584    0.0000 </r>
      </set>
      <set comment="kpoint 26">
       <r>    3.0759    1.0000 </r>
       <r>    3.3766    1.0000 </r>
       <r>    3.7787    1.0000 </r>
       <r>    5.4291    1.0000 </r>
       <r>    6.4929    1.0000 </r>
       <r>    6.6043    1.0000 </r>
       <r>    6.9141    1.0000 </r>
       <r>    8.9517   -0.0001 </r>
       <r>    9.0905   -0.0000 </r>
       <r>    9.6090   -0.0000 </r>
       <r>   10.9132   -0.0000 </r>
       <r>   15.8155    0.0000 </r>
       <r>   18.8188    0.0000 </r>
       <r>   21.1095    0.0000 </r>
       <r>   24.7877    0.0000 </r>
       <r>   26.2705    0.0000 </r>
       <r>   28.5726    0.0000 </r>
       <r>   31.7235    0.0000 </r>
       <r>   36.8541    0.0000 </r>
       <r>   38.3146    0.0000 </r>
       <r>   40.1578    0.0000 </r>
       <r>   42.7841    0.0000 </r>
       <r>   45.4551    0.0000 </r>
       <r>   46.6872    0.0000 </r>
       <r>   50.8661    0.0000 </r>
       <r>   53.5613    0.0000 </r>
       <r>   55.5648    0.0000 </r>
       <r>   57.8806    0.0000 </r>
       <r>   59.6517    0.0000 </r>
       <r>   60.5506    0.0000 </r>
       <r>   61.8710    0.0000 </r>
       <r>   63.0644    0.0000 </r>
       <r>   63.5331    0.0000 </r>
       <r>   65.8118    0.0000 </r>
       <r>   67.3235    0.0000 </r>
       <r>   67.6813    0.0000 </r>
       <r>   68.6012    0.0000 </r>
       <r>   69.9446    0.0000 </r>
       <r>   70.5736    0.0000 </r>
       <r>   72.5375    0.0000 </r>
      </set>
      <set comment="kpoint 27">
       <r>    3.1121    1.0000 </r>
       <r>    3.1839    1.0000 </r>
       <r>    3.7616    1.0000 </r>
       <r>    5.4850    1.0000 </r>
       <r>    6.5135    1.0000 </r>
       <r>    6.8908    1.0000 </r>
       <r>    6.9164    1.0000 </r>
       <r>    9.0751   -0.0000 </r>
       <r>    9.6268   -0.0000 </r>
       <r>    9.6673   -0.0000 </r>
       <r>   12.2050   -0.0000 </r>
       <r>   14.6065    0.0000 </r>
       <r>   19.9185    0.0000 </r>
       <r>   21.0723    0.0000 </r>
       <r>   23.7821    0.0000 </r>
       <r>   25.2406    0.0000 </r>
       <r>   27.0037    0.0000 </r>
       <r>   31.3795    0.0000 </r>
       <r>   36.4302    0.0000 </r>
       <r>   38.2806    0.0000 </r>
       <r>   40.9330    0.0000 </r>
       <r>   42.4997    0.0000 </r>
       <r>   45.4111    0.0000 </r>
       <r>   47.5712    0.0000 </r>
       <r>   48.9947    0.0000 </r>
       <r>   53.9350    0.0000 </r>
       <r>   56.3174    0.0000 </r>
       <r>   58.2461    0.0000 </r>
       <r>   61.1487    0.0000 </r>
       <r>   61.2992    0.0000 </r>
       <r>   63.3702    0.0000 </r>
       <r>   63.3960    0.0000 </r>
       <r>   64.1196    0.0000 </r>
       <r>   65.5411    0.0000 </r>
       <r>   66.2261    0.0000 </r>
       <r>   69.6406    0.0000 </r>
       <r>   70.0766    0.0000 </r>
       <r>   70.4932    0.0000 </r>
       <r>   70.8837    0.0000 </r>
       <r>   72.2626    0.0000 </r>
      </set>
      <set comment="kpoint 28">
       <r>    2.4724    1.0000 </r>
       <r>    4.0327    1.0000 </r>
       <r>    4.5776    1.0000 </r>
       <r>    4.7122    1.0000 </r>
       <r>    6.0595    1.0000 </r>
       <r>    6.2494    1.0000 </r>
       <r>    7.2386    1.0000 </r>
       <r>    7.2620    1.0000 </r>
       <r>    8.9707   -0.0000 </r>
       <r>    8.9731   -0.0000 </r>
       <r>    9.6422   -0.0000 </r>
       <r>   14.8624    0.0000 </r>
       <r>   18.2219    0.0000 </r>
       <r>   24.4682    0.0000 </r>
       <r>   25.4540    0.0000 </r>
       <r>   29.4789    0.0000 </r>
       <r>   31.1088    0.0000 </r>
       <r>   34.5145    0.0000 </r>
       <r>   34.8312    0.0000 </r>
       <r>   37.6520    0.0000 </r>
       <r>   41.6175    0.0000 </r>
       <r>   46.0478    0.0000 </r>
       <r>   46.2883    0.0000 </r>
       <r>   47.6720    0.0000 </r>
       <r>   48.3039    0.0000 </r>
       <r>   51.7695    0.0000 </r>
       <r>   51.7898    0.0000 </r>
       <r>   56.4476    0.0000 </r>
       <r>   57.1957    0.0000 </r>
       <r>   58.9817    0.0000 </r>
       <r>   60.3110    0.0000 </r>
       <r>   62.8225    0.0000 </r>
       <r>   62.8844    0.0000 </r>
       <r>   64.4385    0.0000 </r>
       <r>   64.8205    0.0000 </r>
       <r>   66.7508    0.0000 </r>
       <r>   67.2023    0.0000 </r>
       <r>   68.5747    0.0000 </r>
       <r>   69.6793    0.0000 </r>
       <r>   70.1158    0.0000 </r>
      </set>
      <set comment="kpoint 29">
       <r>    3.5411    1.0000 </r>
       <r>    3.8413    1.0000 </r>
       <r>    4.1577    1.0000 </r>
       <r>    5.0180    1.0000 </r>
       <r>    6.0234    1.0000 </r>
       <r>    6.4035    1.0000 </r>
       <r>    6.8203    1.0000 </r>
       <r>    7.8753    1.0027 </r>
       <r>    8.8432   -0.0009 </r>
       <r>    9.5272   -0.0000 </r>
       <r>   11.1505   -0.0000 </r>
       <r>   16.5828    0.0000 </r>
       <r>   19.4252    0.0000 </r>
       <r>   21.4499    0.0000 </r>
       <r>   23.6493    0.0000 </r>
       <r>   26.7501    0.0000 </r>
       <r>   29.3740    0.0000 </r>
       <r>   30.8456    0.0000 </r>
       <r>   33.8269    0.0000 </r>
       <r>   39.2940    0.0000 </r>
       <r>   42.4280    0.0000 </r>
       <r>   45.5760    0.0000 </r>
       <r>   46.9149    0.0000 </r>
       <r>   49.4436    0.0000 </r>
       <r>   49.8118    0.0000 </r>
       <r>   51.0564    0.0000 </r>
       <r>   54.3672    0.0000 </r>
       <r>   54.5837    0.0000 </r>
       <r>   57.3843    0.0000 </r>
       <r>   59.7357    0.0000 </r>
       <r>   61.5900    0.0000 </r>
       <r>   63.0987    0.0000 </r>
       <r>   63.8438    0.0000 </r>
       <r>   66.1243    0.0000 </r>
       <r>   67.3314    0.0000 </r>
       <r>   67.7519    0.0000 </r>
       <r>   68.7414    0.0000 </r>
       <r>   70.3300    0.0000 </r>
       <r>   71.2037    0.0000 </r>
       <r>   72.1180    0.0000 </r>
      </set>
      <set comment="kpoint 30">
       <r>    3.5028    1.0000 </r>
       <r>    3.8116    1.0000 </r>
       <r>    4.1865    1.0000 </r>
       <r>    5.3500    1.0000 </r>
       <r>    6.1591    1.0000 </r>
       <r>    6.3077    1.0000 </r>
       <r>    6.8860    1.0000 </r>
       <r>    8.7300   -0.0086 </r>
       <r>    8.7595   -0.0052 </r>
       <r>    9.4805   -0.0000 </r>
       <r>   12.9487   -0.0000 </r>
       <r>   16.1578    0.0000 </r>
       <r>   20.0644    0.0000 </r>
       <r>   21.8768    0.0000 </r>
       <r>   22.4902    0.0000 </r>
       <r>   24.4866    0.0000 </r>
       <r>   27.6800    0.0000 </r>
       <r>   28.6935    0.0000 </r>
       <r>   33.2161    0.0000 </r>
       <r>   40.7484    0.0000 </r>
       <r>   42.7606    0.0000 </r>
       <r>   44.5951    0.0000 </r>
       <r>   47.3741    0.0000 </r>
       <r>   48.5370    0.0000 </r>
       <r>   51.2222    0.0000 </r>
       <r>   51.6610    0.0000 </r>
       <r>   54.7874    0.0000 </r>
       <r>   56.1009    0.0000 </r>
       <r>   59.4726    0.0000 </r>
       <r>   60.0056    0.0000 </r>
       <r>   61.1929    0.0000 </r>
       <r>   63.2285    0.0000 </r>
       <r>   63.5295    0.0000 </r>
       <r>   64.7323    0.0000 </r>
       <r>   68.1719    0.0000 </r>
       <r>   69.0459    0.0000 </r>
       <r>   70.4640    0.0000 </r>
       <r>   70.5590    0.0000 </r>
       <r>   71.3157    0.0000 </r>
       <r>   72.3211    0.0000 </r>
      </set>
      <set comment="kpoint 31">
       <r>    3.7798    1.0000 </r>
       <r>    4.3627    1.0000 </r>
       <r>    4.6675    1.0000 </r>
       <r>    4.7699    1.0000 </r>
       <r>    5.8703    1.0000 </r>
       <r>    6.1866    1.0000 </r>
       <r>    6.8144    1.0000 </r>
       <r>    8.2014    0.9471 </r>
       <r>    8.5963   -0.0345 </r>
       <r>    9.4383   -0.0000 </r>
       <r>   13.1521   -0.0000 </r>
       <r>   18.0513    0.0000 </r>
       <r>   19.2806    0.0000 </r>
       <r>   20.6791    0.0000 </r>
       <r>   22.6083    0.0000 </r>
       <r>   26.0354    0.0000 </r>
       <r>   26.2414    0.0000 </r>
       <r>   29.6634    0.0000 </r>
       <r>   30.4728    0.0000 </r>
       <r>   41.0079    0.0000 </r>
       <r>   44.3517    0.0000 </r>
       <r>   47.4194    0.0000 </r>
       <r>   47.5653    0.0000 </r>
       <r>   50.1493    0.0000 </r>
       <r>   50.2851    0.0000 </r>
       <r>   51.1700    0.0000 </r>
       <r>   53.9995    0.0000 </r>
       <r>   55.5536    0.0000 </r>
       <r>   55.8679    0.0000 </r>
       <r>   60.2383    0.0000 </r>
       <r>   60.5674    0.0000 </r>
       <r>   63.1010    0.0000 </r>
       <r>   63.5875    0.0000 </r>
       <r>   64.6674    0.0000 </r>
       <r>   68.3768    0.0000 </r>
       <r>   69.5370    0.0000 </r>
       <r>   69.5978    0.0000 </r>
       <r>   70.8062    0.0000 </r>
       <r>   71.5188    0.0000 </r>
       <r>   73.4586    0.0000 </r>
      </set>
      <set comment="kpoint 32">
       <r>    3.8478    1.0000 </r>
       <r>    4.4719    1.0000 </r>
       <r>    4.6284    1.0000 </r>
       <r>    5.0851    1.0000 </r>
       <r>    5.8451    1.0000 </r>
       <r>    5.9194    1.0000 </r>
       <r>    6.9641    1.0000 </r>
       <r>    8.5010    0.0020 </r>
       <r>    8.6535   -0.0233 </r>
       <r>    9.0345   -0.0000 </r>
       <r>   15.0764    0.0000 </r>
       <r>   16.5238    0.0000 </r>
       <r>   18.8128    0.0000 </r>
       <r>   22.4553    0.0000 </r>
       <r>   22.5039    0.0000 </r>
       <r>   24.7605    0.0000 </r>
       <r>   26.0611    0.0000 </r>
       <r>   27.7353    0.0000 </r>
       <r>   29.8990    0.0000 </r>
       <r>   41.8728    0.0000 </r>
       <r>   44.9485    0.0000 </r>
       <r>   47.1403    0.0000 </r>
       <r>   47.6459    0.0000 </r>
       <r>   49.8849    0.0000 </r>
       <r>   50.8181    0.0000 </r>
       <r>   52.6494    0.0000 </r>
       <r>   54.7552    0.0000 </r>
       <r>   56.0855    0.0000 </r>
       <r>   56.2840    0.0000 </r>
       <r>   59.1348    0.0000 </r>
       <r>   60.1789    0.0000 </r>
       <r>   61.3045    0.0000 </r>
       <r>   63.6881    0.0000 </r>
       <r>   63.7158    0.0000 </r>
       <r>   67.9829    0.0000 </r>
       <r>   69.6421    0.0000 </r>
       <r>   70.6105    0.0000 </r>
       <r>   71.0009    0.0000 </r>
       <r>   72.4539    0.0000 </r>
       <r>   73.1447    0.0000 </r>
      </set>
      <set comment="kpoint 33">
       <r>   -0.9218    1.0000 </r>
       <r>    2.4768    1.0000 </r>
       <r>    5.4300    1.0000 </r>
       <r>    6.4444    1.0000 </r>
       <r>    6.4445    1.0000 </r>
       <r>    6.4593    1.0000 </r>
       <r>    6.7313    1.0000 </r>
       <r>    6.7313    1.0000 </r>
       <r>    8.2413    0.8505 </r>
       <r>    8.2414    0.8505 </r>
       <r>    9.1799   -0.0000 </r>
       <r>    9.1799   -0.0000 </r>
       <r>   17.7337    0.0000 </r>
[...]
       <r>   24.7502    0.0000 </r>
       <r>   25.4987    0.0000 </r>
       <r>   29.2808    0.0000 </r>
       <r>   30.4119    0.0000 </r>
       <r>   35.5090    0.0000 </r>
       <r>   36.5868    0.0000 </r>
       <r>   39.1247    0.0000 </r>
       <r>   40.7343    0.0000 </r>
       <r>   46.5239    0.0000 </r>
       <r>   46.9661    0.0000 </r>
       <r>   56.3368    0.0000 </r>
       <r>   56.9452    0.0000 </r>
       <r>   57.3952    0.0000 </r>
       <r>   58.3492    0.0000 </r>
       <r>   60.3834    0.0000 </r>
       <r>   61.1815    0.0000 </r>
       <r>   61.4404    0.0000 </r>
       <r>   61.8334    0.0000 </r>
       <r>   63.7532    0.0000 </r>
       <r>   64.2154    0.0000 </r>
       <r>   66.7809    0.0000 </r>
       <r>   66.9889    0.0000 </r>
       <r>   69.3098    0.0000 </r>
       <r>   69.4433    0.0000 </r>
       <r>   70.5913    0.0000 </r>
       <r>   71.4117    0.0000 </r>
      </set>
      <set comment="kpoint 95">
       <r>    3.8410    1.0000 </r>
       <r>    3.9275    1.0000 </r>
       <r>    4.9573    1.0000 </r>
       <r>    5.1917    1.0000 </r>
       <r>    5.6986    1.0000 </r>
       <r>    5.9324    1.0000 </r>
       <r>    7.2464    1.0000 </r>
       <r>    7.4637    1.0000 </r>
       <r>    9.2391   -0.0000 </r>
       <r>    9.4649   -0.0000 </r>
       <r>   14.0664    0.0000 </r>
       <r>   14.5956    0.0000 </r>
       <r>   20.7980    0.0000 </r>
       <r>   21.2528    0.0000 </r>
       <r>   22.8313    0.0000 </r>
       <r>   23.2617    0.0000 </r>
       <r>   29.5070    0.0000 </r>
       <r>   31.1277    0.0000 </r>
       <r>   35.5248    0.0000 </r>
       <r>   36.9457    0.0000 </r>
       <r>   38.7906    0.0000 </r>
       <r>   39.9510    0.0000 </r>
       <r>   48.9684    0.0000 </r>
       <r>   49.4276    0.0000 </r>
       <r>   53.7108    0.0000 </r>
       <r>   53.7461    0.0000 </r>
       <r>   58.5188    0.0000 </r>
       <r>   60.4389    0.0000 </r>
       <r>   60.5106    0.0000 </r>
       <r>   61.2785    0.0000 </r>
       <r>   62.3636    0.0000 </r>
       <r>   62.4917    0.0000 </r>
       <r>   62.6378    0.0000 </r>
       <r>   62.9860    0.0000 </r>
       <r>   65.7764    0.0000 </r>
       <r>   66.1265    0.0000 </r>
       <r>   69.2260    0.0000 </r>
       <r>   69.2645    0.0000 </r>
       <r>   69.9806    0.0000 </r>
       <r>   69.9980    0.0000 </r>
      </set>
      <set comment="kpoint 96">
       <r>    4.0837    1.0000 </r>
       <r>    4.2351    1.0000 </r>
       <r>    4.8889    1.0000 </r>
       <r>    4.9920    1.0000 </r>
       <r>    5.6828    1.0000 </r>
       <r>    5.8412    1.0000 </r>
       <r>    7.2919    1.0000 </r>
       <r>    7.4524    1.0000 </r>
       <r>    9.2220   -0.0000 </r>
       <r>    9.3018   -0.0000 </r>
       <r>   16.0367    0.0000 </r>
       <r>   16.2004    0.0000 </r>
       <r>   18.9941    0.0000 </r>
       <r>   19.3548    0.0000 </r>
       <r>   22.1648    0.0000 </r>
       <r>   22.6031    0.0000 </r>
       <r>   31.2713    0.0000 </r>
       <r>   32.1304    0.0000 </r>
       <r>   34.5417    0.0000 </r>
       <r>   34.7450    0.0000 </r>
       <r>   38.5098    0.0000 </r>
       <r>   39.3384    0.0000 </r>
       <r>   50.2700    0.0000 </r>
       <r>   50.9200    0.0000 </r>
       <r>   55.1214    0.0000 </r>
       <r>   55.5780    0.0000 </r>
       <r>   58.2168    0.0000 </r>
       <r>   58.6183    0.0000 </r>
       <r>   60.2262    0.0000 </r>
       <r>   60.5583    0.0000 </r>
       <r>   62.0936    0.0000 </r>
       <r>   62.5230    0.0000 </r>
       <r>   63.4810    0.0000 </r>
       <r>   63.5509    0.0000 </r>
       <r>   64.6770    0.0000 </r>
       <r>   66.1121    0.0000 </r>
       <r>   67.7161    0.0000 </r>
       <r>   68.5975    0.0000 </r>
       <r>   71.6488    0.0000 </r>
       <r>   71.9225    0.0000 </r>
      </set>
     </set>
    </set>
   </array>
  </eigenvalues>
  <separator name="orbital magnetization" >
   <v name="MAGDIPOLOUT">      0.00000000      0.00000000      0.00000000</v>
  </separator>
  <dos>
   <i name="efermi">      8.33443529 </i>
   <total>
    <array>
     <dimension dim="1">gridpoints</dimension>
     <dimension dim="2">spin</dimension>
     <field>energy</field>
     <field>total</field>
     <field>integrated</field>
     <set>
      <set comment="spin 1">
       <r>    -5.0133     0.0000     0.0000 </r>
       <r>    -4.7377     0.0000     0.0000 </r>
       <r>    -4.4622     0.0000     0.0000 </r>
       <r>    -4.1866     0.0000     0.0000 </r>
       <r>    -3.9111     0.0000     0.0000 </r>
       <r>    -3.6355     0.0000     0.0000 </r>
       <r>    -3.3599     0.0000     0.0000 </r>
       <r>    -3.0844    -0.0000    -0.0000 </r>
       <r>    -2.8088    -0.0000    -0.0000 </r>
       <r>    -2.5333    -0.0000    -0.0000 </r>
       <r>    -2.2577    -0.0000    -0.0000 </r>
       <r>    -1.9822    -0.0000    -0.0000 </r>
       <r>    -1.7066    -0.0000    -0.0000 </r>
       <r>    -1.4311    -0.0004    -0.0001 </r>
       <r>    -1.1555     0.0088     0.0023 </r>
       <r>    -0.8800     0.0442     0.0145 </r>
       <r>    -0.6044     0.0979     0.0415 </r>
       <r>    -0.3289     0.0525     0.0559 </r>
       <r>    -0.0533     0.1327     0.0925 </r>
       <r>     0.2222     0.1573     0.1359 </r>
       <r>     0.4978     0.1955     0.1897 </r>
       <r>     0.7733     0.0854     0.2133 </r>
       <r>     1.0489     0.1817     0.2633 </r>
       <r>     1.3245     0.3044     0.3472 </r>
       <r>     1.6000     0.2859     0.4260 </r>
       <r>     1.8756     0.3202     0.5142 </r>
       <r>     2.1511     0.2442     0.5815 </r>
       <r>     2.4267     0.3560     0.6796 </r>
       <r>     2.7022     1.3159     1.0422 </r>
       <r>     2.9778     1.8972     1.5650 </r>
       <r>     3.2533     1.7828     2.0563 </r>
       <r>     3.5289     2.6807     2.7949 </r>
       <r>     3.8044     2.3016     3.4291 </r>
       <r>     4.0800     2.4726     4.1105 </r>
       <r>     4.3555     2.2036     4.7177 </r>
       <r>     4.6311     2.8017     5.4897 </r>
       <r>     4.9066     2.6380     6.2166 </r>
       <r>     5.1822     2.9569     7.0314 </r>
       <r>     5.4577     2.1179     7.6150 </r>
       <r>     5.7333     1.8619     8.1280 </r>
       <r>     6.0088     3.1672     9.0008 </r>
       <r>     6.2844     3.1798     9.8770 </r>
       <r>     6.5600     3.1751    10.7519 </r>
       <r>     6.8355     3.2268    11.6410 </r>
       <r>     7.1111     2.6982    12.3845 </r>
       <r>     7.3866     3.1603    13.2553 </r>
       <r>     7.6622     2.9700    14.0737 </r>
       <r>     7.9377     2.8770    14.8665 </r>
       <r>     8.2133     2.9693    15.6847 </r>
       <r>     8.4888     2.5516    16.3878 </r>
       <r>     8.7644     2.8907    17.1843 </r>
       <r>     9.0399     3.8604    18.2481 </r>
       <r>     9.3155     4.1427    19.3896 </r>
       <r>     9.5910     3.4398    20.3374 </r>
       <r>     9.8666     2.8070    21.1109 </r>
       <r>    10.1421     0.5270    21.2562 </r>
       <r>    10.4177     0.3802    21.3609 </r>
       <r>    10.6932     0.4048    21.4724 </r>
       <r>    10.9688     0.5980    21.6372 </r>
       <r>    11.2444     0.7473    21.8432 </r>
       <r>    11.5199     0.7007    22.0362 </r>
       <r>    11.7955     0.3939    22.1448 </r>
       <r>    12.0710     0.2992    22.2272 </r>
       <r>    12.3466     0.4620    22.3545 </r>
       <r>    12.6221     0.3673    22.4557 </r>
       <r>    12.8977     0.2969    22.5376 </r>
       <r>    13.1732     0.6317    22.7116 </r>
       <r>    13.4488     0.4708    22.8413 </r>
       <r>    13.7243     0.4781    22.9731 </r>
       <r>    13.9999     0.4242    23.0900 </r>
       <r>    14.2754     0.3203    23.1782 </r>
       <r>    14.5510     0.1364    23.2158 </r>
       <r>    14.8265     0.4267    23.3334 </r>
       <r>    15.1021     0.2982    23.4156 </r>
       <r>    15.3776     0.4294    23.5339 </r>
       <r>    15.6532     0.1300    23.5697 </r>
       <r>    15.9288     0.3327    23.6614 </r>
       <r>    16.2043     0.3235    23.7505 </r>
       <r>    16.4799     0.4689    23.8797 </r>
       <r>    16.7554     0.4127    23.9935 </r>
       <r>    17.0310     0.2312    24.0572 </r>
       <r>    17.3065     0.2029    24.1131 </r>
       <r>    17.5821     0.1383    24.1512 </r>
       <r>    17.8576     0.0800    24.1733 </r>
       <r>    18.1332     0.2634    24.2458 </r>
       <r>    18.4087     0.3778    24.3499 </r>
       <r>    18.6843     0.1109    24.3805 </r>
       <r>    18.9598     0.5205    24.5239 </r>
       <r>    19.2354     0.4454    24.6466 </r>
       <r>    19.5109     0.9563    24.9102 </r>
       <r>    19.7865     0.8338    25.1399 </r>
       <r>    20.0620     0.7436    25.3448 </r>
       <r>    20.3376     0.3811    25.4499 </r>
       <r>    20.6131     0.5553    25.6029 </r>
       <r>    20.8887     0.5995    25.7681 </r>
       <r>    21.1643     0.6395    25.9443 </r>
       <r>    21.4398     0.7381    26.1477 </r>
       <r>    21.7154     0.9175    26.4005 </r>
       <r>    21.9909     0.6756    26.5866 </r>
       <r>    22.2665     0.3385    26.6799 </r>
       <r>    22.5420     0.5810    26.8400 </r>
       <r>    22.8176     0.7456    27.0455 </r>
       <r>    23.0931     0.7063    27.2401 </r>
       <r>    23.3687     0.5467    27.3907 </r>
       <r>    23.6442     0.4952    27.5272 </r>
       <r>    23.9198     0.6642    27.7102 </r>
       <r>    24.1953     0.4355    27.8302 </r>
       <r>    24.4709     0.6526    28.0100 </r>
       <r>    24.7464     0.7672    28.2215 </r>
       <r>    25.0220     0.6124    28.3902 </r>
       <r>    25.2975     0.4721    28.5203 </r>
       <r>    25.5731     0.7306    28.7216 </r>
       <r>    25.8487     0.4951    28.8580 </r>
       <r>    26.1242     0.7498    29.0646 </r>
       <r>    26.3998     1.2819    29.4178 </r>
       <r>    26.6753     0.8499    29.6520 </r>
       <r>    26.9509     0.5759    29.8107 </r>
       <r>    27.2264     0.8484    30.0445 </r>
       <r>    27.5020     0.7142    30.2413 </r>
       <r>    27.7775     0.8613    30.4787 </r>
       <r>    28.0531     1.0270    30.7617 </r>
       <r>    28.3286     0.8531    30.9967 </r>
       <r>    28.6042     0.8503    31.2310 </r>
       <r>    28.8797     0.9222    31.4851 </r>
       <r>    29.1553     0.5216    31.6288 </r>
       <r>    29.4308     1.3513    32.0012 </r>
       <r>    29.7064     1.3186    32.3645 </r>
       <r>    29.9819     0.8025    32.5857 </r>
       <r>    30.2575     0.3372    32.6786 </r>
       <r>    30.5330     0.9042    32.9277 </r>
       <r>    30.8086     0.7807    33.1428 </r>
       <r>    31.0842     0.8973    33.3901 </r>
       <r>    31.3597     0.7399    33.5940 </r>
       <r>    31.6353     0.9254    33.8490 </r>
       <r>    31.9108     0.7752    34.0626 </r>
       <r>    32.1864     0.9366    34.3207 </r>
       <r>    32.4619     0.5744    34.4790 </r>
       <r>    32.7375     0.5785    34.6384 </r>
       <r>    33.0130     0.7093    34.8338 </r>
       <r>    33.2886     0.5020    34.9721 </r>
       <r>    33.5641     0.5767    35.1310 </r>
       <r>    33.8397     0.7354    35.3337 </r>
       <r>    34.1152     0.7625    35.5438 </r>
       <r>    34.3908     0.5762    35.7026 </r>
       <r>    34.6663     0.6063    35.8696 </r>
       <r>    34.9419     0.6812    36.0573 </r>
       <r>    35.2174     0.7043    36.2514 </r>
       <r>    35.4930     0.9302    36.5077 </r>
       <r>    35.7686     0.7006    36.7008 </r>
       <r>    36.0441     0.5812    36.8609 </r>
       <r>    36.3197     0.7174    37.0586 </r>
       <r>    36.5952     0.5628    37.2137 </r>
       <r>    36.8708     0.7106    37.4095 </r>
       <r>    37.1463     0.7147    37.6064 </r>
       <r>    37.4219     1.2993    37.9645 </r>
       <r>    37.6974     0.8788    38.2066 </r>
       <r>    37.9730     0.6754    38.3928 </r>
       <r>    38.2485     0.6511    38.5722 </r>
       <r>    38.5241     1.0208    38.8535 </r>
       <r>    38.7996     1.1060    39.1582 </r>
       <r>    39.0752     0.8066    39.3805 </r>
       <r>    39.3507     0.8058    39.6025 </r>
       <r>    39.6263     1.3092    39.9633 </r>
       <r>    39.9018     0.9701    40.2306 </r>
       <r>    40.1774     1.2563    40.5768 </r>
       <r>    40.4530     0.7597    40.7861 </r>
       <r>    40.7285     0.9455    41.0466 </r>
       <r>    41.0041     0.9386    41.3053 </r>
       <r>    41.2796     0.4832    41.4384 </r>
       <r>    41.5552     0.5051    41.5776 </r>
       <r>    41.8307     0.8792    41.8198 </r>
       <r>    42.1063     0.6807    42.0074 </r>
       <r>    42.3818     0.5354    42.1549 </r>
       <r>    42.6574     0.4903    42.2900 </r>
       <r>    42.9329     0.9792    42.5599 </r>
       <r>    43.2085     0.9235    42.8143 </r>
       <r>    43.4840     0.9604    43.0790 </r>
       <r>    43.7596     0.5587    43.2329 </r>
       <r>    44.0351     0.7353    43.4355 </r>
       <r>    44.3107     0.6238    43.6074 </r>
       <r>    44.5862     0.8715    43.8476 </r>
       <r>    44.8618     0.5670    44.0038 </r>
       <r>    45.1373     0.8511    44.2383 </r>
       <r>    45.4129     0.7503    44.4451 </r>
       <r>    45.6885     1.1315    44.7569 </r>
       <r>    45.9640     1.0959    45.0588 </r>
       <r>    46.2396     0.9363    45.3168 </r>
       <r>    46.5151     1.4429    45.7144 </r>
       <r>    46.7907     0.7435    45.9193 </r>
       <r>    47.0662     1.0027    46.1956 </r>
       <r>    47.3418     1.0681    46.4899 </r>
       <r>    47.6173     1.2541    46.8355 </r>
       <r>    47.8929     1.1199    47.1441 </r>
       <r>    48.1684     0.8691    47.3836 </r>
       <r>    48.4440     1.1510    47.7007 </r>
       <r>    48.7195     0.8592    47.9375 </r>
       <r>    48.9951     0.7347    48.1400 </r>
       <r>    49.2706     0.8924    48.3859 </r>
       <r>    49.5462     0.7579    48.5947 </r>
       <r>    49.8217     1.0511    48.8843 </r>
       <r>    50.0973     1.0815    49.1823 </r>
       <r>    50.3729     0.9368    49.4405 </r>
       <r>    50.6484     0.4951    49.5769 </r>
       <r>    50.9240     0.7898    49.7945 </r>
       <r>    51.1995     1.3501    50.1665 </r>
       <r>    51.4751     1.0809    50.4644 </r>
       <r>    51.7506     0.7646    50.6751 </r>
       <r>    52.0262     0.5289    50.8208 </r>
       <r>    52.3017     1.0274    51.1039 </r>
       <r>    52.5773     1.2578    51.4505 </r>
       <r>    52.8528     1.0956    51.7524 </r>
       <r>    53.1284     0.6127    51.9213 </r>
       <r>    53.4039     0.7941    52.1401 </r>
       <r>    53.6795     0.9112    52.3912 </r>
       <r>    53.9550     1.1355    52.7040 </r>
       <r>    54.2306     0.7853    52.9204 </r>
       <r>    54.5061     1.1600    53.2400 </r>
       <r>    54.7817     1.5451    53.6658 </r>
       <r>    55.0572     1.1463    53.9817 </r>
       <r>    55.3328     1.1708    54.3043 </r>
       <r>    55.6084     1.0542    54.5948 </r>
       <r>    55.8839     1.3534    54.9677 </r>
       <r>    56.1595     1.0275    55.2509 </r>
       <r>    56.4350     1.1284    55.5618 </r>
       <r>    56.7106     1.0566    55.8530 </r>
       <r>    56.9861     0.6934    56.0440 </r>
       <r>    57.2617     0.8830    56.2873 </r>
       <r>    57.5372     1.1002    56.5905 </r>
       <r>    57.8128     1.5546    57.0189 </r>
       <r>    58.0883     1.0450    57.3068 </r>
       <r>    58.3639     1.2590    57.6537 </r>
       <r>    58.6394     1.2945    58.0104 </r>
       <r>    58.9150     1.2728    58.3611 </r>
       <r>    59.1905     1.4177    58.7518 </r>
       <r>    59.4661     1.4288    59.1455 </r>
       <r>    59.7416     1.7244    59.6206 </r>
       <r>    60.0172     1.1662    59.9420 </r>
       <r>    60.2928     1.1990    60.2724 </r>
       <r>    60.5683     1.4135    60.6619 </r>
       <r>    60.8439     1.7195    61.1357 </r>
       <r>    61.1194     2.2956    61.7682 </r>
       <r>    61.3950     1.6135    62.2128 </r>
       <r>    61.6705     1.8053    62.7103 </r>
       <r>    61.9461     1.5915    63.1489 </r>
       <r>    62.2216     1.5488    63.5756 </r>
       <r>    62.4972     1.6211    64.0223 </r>
       <r>    62.7727     2.4693    64.7027 </r>
       <r>    63.0483     2.5861    65.4154 </r>
       <r>    63.3238     2.8714    66.2066 </r>
       <r>    63.5994     2.1382    66.7958 </r>
       <r>    63.8749     2.3912    67.4547 </r>
       <r>    64.1505     1.5114    67.8712 </r>
       <r>    64.4260     1.2403    68.2129 </r>
       <r>    64.7016     1.6937    68.6796 </r>
       <r>    64.9772     1.8540    69.1905 </r>
       <r>    65.2527     1.0927    69.4916 </r>
       <r>    65.5283     1.4452    69.8898 </r>
       <r>    65.8038     1.2034    70.2214 </r>
       <r>    66.0794     1.7318    70.6986 </r>
       <r>    66.3549     1.2895    71.0540 </r>
       <r>    66.6305     1.2096    71.3873 </r>
       <r>    66.9060     1.5507    71.8145 </r>
       <r>    67.1816     1.7471    72.2960 </r>
       <r>    67.4571     1.6259    72.7440 </r>
       <r>    67.7327     1.0614    73.0365 </r>
       <r>    68.0082     1.2455    73.3797 </r>
       <r>    68.2838     1.2616    73.7273 </r>
       <r>    68.5593     1.5381    74.1511 </r>
       <r>    68.8349     1.8125    74.6506 </r>
       <r>    69.1104     1.0516    74.9403 </r>
       <r>    69.3860     1.7233    75.4152 </r>
       <r>    69.6615     1.7557    75.8990 </r>
       <r>    69.9371     1.2143    76.2336 </r>
       <r>    70.2127     1.6603    76.6911 </r>
       <r>    70.4882     1.5633    77.1218 </r>
       <r>    70.7638     1.7498    77.6040 </r>
       <r>    71.0393     0.8793    77.8463 </r>
       <r>    71.3149     1.1292    78.1574 </r>
       <r>    71.5904     1.1702    78.4799 </r>
       <r>    71.8660     1.0202    78.7610 </r>
       <r>    72.1415     1.1923    79.0895 </r>
       <r>    72.4171     1.1420    79.4042 </r>
       <r>    72.6926     0.8541    79.6396 </r>
       <r>    72.9682     0.6022    79.8055 </r>
       <r>    73.2437     0.3783    79.9098 </r>
       <r>    73.5193     0.2429    79.9767 </r>
       <r>    73.7948     0.0603    79.9933 </r>
       <r>    74.0704     0.0245    80.0001 </r>
       <r>    74.3459    -0.0002    80.0000 </r>
       <r>    74.6215    -0.0001    80.0000 </r>
       <r>    74.8971    -0.0000    80.0000 </r>
       <r>    75.1726    -0.0000    80.0000 </r>
       <r>    75.4482     0.0000    80.0000 </r>
       <r>    75.7237     0.0000    80.0000 </r>
       <r>    75.9993     0.0000    80.0000 </r>
       <r>    76.2748     0.0000    80.0000 </r>
       <r>    76.5504     0.0000    80.0000 </r>
       <r>    76.8259     0.0000    80.0000 </r>
       <r>    77.1015     0.0000    80.0000 </r>
       <r>    77.3770     0.0000    80.0000 </r>
       <r>    77.6526     0.0000    80.0000 </r>
      </set>
     </set>
    </array>
   </total>
  </dos>
 </calculation>
 <structure name="finalpos" >
  <crystal>
   <varray name="basis" >
    <v>       2.26010000       0.00000000       0.00000000 </v>
    <v>      -1.13005000       1.95730402       0.00000000 </v>
    <v>       0.00000000       0.00000000       4.09631000 </v>
   </varray>
   <i name="volume">     18.12085804 </i>
   <varray name="rec_basis" >
    <v>       0.44245830       0.25545342       0.00000000 </v>
    <v>       0.00000000       0.51090684       0.00000000 </v>
    <v>       0.00000000       0.00000000       0.24412215 </v>
   </varray>
  </crystal>
  <varray name="positions" >
   <v>       0.00000000       0.00000000       0.00000000 </v>
   <v>       0.33333333       0.66666667       0.50000000 </v>
  </varray>
 </structure>
</modeling>
