unknown system                          
           1
     2.260100    0.000000    0.000000
    -1.130050    1.957304    0.000000
     0.000000    0.000000    4.096310
   Fe
     2
Direct configuration=     1
   0.00000000  0.00000000  0.00000000
   0.33333333  0.66666667  0.50000000
