unknown system                          
   1.00000000000000     
     3.509554    0.000000    0.000000
     0.000000    3.509554    0.000000
     0.000000    0.000000    3.509554
   Cu
     4
Direct
  0.000000  0.000000  0.000000
  0.500000  0.500000  0.000000
  0.500000  0.000000  0.500000
  0.000000  0.500000  0.500000
 
   32   32   32
  758.40      717.65      607.55      458.54      305.85      177.48      88.458      40.036      21.639      15.896    
  12.279      10.015      8.7119      8.0177      7.5976      7.2805      7.1446      7.2805      7.5976      8.0177    
  8.7119      10.015      12.279      15.896      21.639      40.036      88.458      177.48      305.85      458.54    
  607.55      717.65      717.65      678.93      574.34      432.81      287.96      166.56      82.903      37.939    
  21.152      15.714      12.210      10.029      8.7773      8.1116      7.7102      7.4090      7.2805      7.4090    
  7.7102      8.1116      8.7773      10.029      12.210      15.714      21.152      37.939      82.903      166.56    
  287.96      432.81      574.34      678.93      607.55      574.34      484.63      363.42      239.91      137.50    
  68.402      32.655      19.956      15.207      12.023      10.064      8.9436      8.3419      7.9780      7.7102    
  7.5976      7.7102      7.9780      8.3419      8.9436      10.064      12.023      15.207      19.956      32.655    
  68.402      137.50      239.91      363.42      484.63      574.34      458.54      432.81      363.42      270.08    
  175.99      99.689      50.319      26.556      18.532      14.482      11.777      10.135      9.1892      8.6655    
  8.3419      8.1116      8.0177      8.1116      8.3419      8.6655      9.1892      10.135      11.777      14.482    
  18.532      26.556      50.319      99.689      175.99      270.08      363.42      432.81      305.85      287.96    
  239.91      175.99      112.97      63.957      34.495      21.811      16.987      13.695      11.577      10.315    
  9.5922      9.1892      8.9436      8.7773      8.7119      8.7773      8.9436      9.1892      9.5922      10.315    
  11.577      13.695      16.987      21.811      34.495      63.957      112.97      175.99      239.91      287.96    
  177.48      166.56      137.50      99.689      63.957      38.151      24.403      18.867      15.437      13.023    
  11.549      10.730      10.315      10.135      10.064      10.029      10.015      10.029      10.064      10.135    
  10.315      10.730      11.549      13.023      15.437      18.867      24.403      38.151      63.957      99.689    
  137.50      166.56      88.458      82.903      68.402      50.319      34.495      24.403      19.561      16.489    
  14.135      12.629      11.839      11.549      11.577      11.777      12.023      12.210      12.279      12.210    
  12.023      11.777      11.577      11.549      11.839      12.629      14.135      16.489      19.561      24.403    
  34.495      50.319      68.402      82.903      40.036      37.939      32.655      26.556      21.811      18.867    
  16.489      14.559      13.278      12.667      12.629      13.023      13.695      14.482      15.207      15.714    
  15.896      15.714      15.207      14.482      13.695      13.023      12.629      12.667      13.278      14.559    
  16.489      18.867      21.811      26.556      32.655      37.939      21.639      21.152      19.956      18.532    
  16.987      15.437      14.135      13.278      12.981      13.278      14.135      15.437      16.987      18.532    
  19.956      21.152      21.639      21.152      19.956      18.532      16.987      15.437      14.135      13.278    
  12.981      13.278      14.135      15.437      16.987      18.532      19.956      21.152      15.896      15.714    
  15.207      14.482      13.695      13.023      12.629      12.667      13.278      14.559      16.489      18.867    
  21.811      26.556      32.655      37.939      40.036      37.939      32.655      26.556      21.811      18.867    
  16.489      14.559      13.278      12.667      12.629      13.023      13.695      14.482      15.207      15.714    
  12.279      12.210      12.023      11.777      11.577      11.549      11.839      12.629      14.135      16.489    
  19.561      24.403      34.495      50.319      68.402      82.903      88.458      82.903      68.402      50.319    
  34.495      24.403      19.561      16.489      14.135      12.629      11.839      11.549      11.577      11.777    
  12.023      12.210      10.015      10.029      10.064      10.135      10.315      10.730      11.549      13.023    
  15.437      18.867      24.403      38.151      63.957      99.689      137.50      166.56      177.48      166.56    
  137.50      99.689      63.957      38.151      24.403      18.867      15.437      13.023      11.549      10.730    
  10.315      10.135      10.064      10.029      8.7119      8.7773      8.9436      9.1892      9.5922      10.315    
  11.577      13.695      16.987      21.811      34.495      63.957      112.97      175.99      239.91      287.96    
  305.85      287.96      239.91      175.99      112.97      63.957      34.495      21.811      16.987      13.695    
  11.577      10.315      9.5922      9.1892      8.9436      8.7773      8.0177      8.1116      8.3419      8.6655    
  9.1892      10.135      11.777      14.482      18.532      26.556      50.319      99.689      175.99      270.08    
  363.42      432.81      458.54      432.81      363.42      270.08      175.99      99.689      50.319      26.556    
  18.532      14.482      11.777      10.135      9.1892      8.6655      8.3419      8.1116      7.5976      7.7102    
  7.9780      8.3419      8.9436      10.064      12.023      15.207      19.956      32.655      68.402      137.50    
  239.91      363.42      484.63      574.34      607.55      574.34      484.63      363.42      239.91      137.50    
  68.402      32.655      19.956      15.207      12.023      10.064      8.9436      8.3419      7.9780      7.7102    
  7.2805      7.4090      7.7102      8.1116      8.7773      10.029      12.210      15.714      21.152      37.939    
  82.903      166.56      287.96      432.81      574.34      678.93      717.65      678.93      574.34      432.81    
  287.96      166.56      82.903      37.939      21.152      15.714      12.210      10.029      8.7773      8.1116    
  7.7102      7.4090      7.1446      7.2805      7.5976      8.0177      8.7119      10.015      12.279      15.896    
  21.639      40.036      88.458      177.48      305.85      458.54      607.55      717.65      758.40      717.65    
  607.55      458.54      305.85      177.48      88.458      40.036      21.639      15.896      12.279      10.015    
  8.7119      8.0177      7.5976      7.2805      7.2805      7.4090      7.7102      8.1116      8.7773      10.029    
  12.210      15.714      21.152      37.939      82.903      166.56      287.96      432.81      574.34      678.93    
  717.65      678.93      574.34      432.81      287.96      166.56      82.903      37.939      21.152      15.714    
  12.210      10.029      8.7773      8.1116      7.7102      7.4090      7.5976      7.7102      7.9780      8.3419    
  8.9436      10.064      12.023      15.207      19.956      32.655      68.402      137.50      239.91      363.42    
  484.63      574.34      607.55      574.34      484.63      363.42      239.91      137.50      68.402      32.655    
  19.956      15.207      12.023      10.064      8.9436      8.3419      7.9780      7.7102      8.0177      8.1116    
  8.3419      8.6655      9.1892      10.135      11.777      14.482      18.532      26.556      50.319      99.689    
  175.99      270.08      363.42      432.81      458.54      432.81      363.42      270.08      175.99      99.689    
  50.319      26.556      18.532      14.482      11.777      10.135      9.1892      8.6655      8.3419      8.1116    
  8.7119      8.7773      8.9436      9.1892      9.5922      10.315      11.577      13.695      16.987      21.811    
  34.495      63.957      112.97      175.99      239.91      287.96      305.85      287.96      239.91      175.99    
  112.97      63.957      34.495      21.811      16.987      13.695      11.577      10.315      9.5922      9.1892    
  8.9436      8.7773      10.015      10.029      10.064      10.135      10.315      10.730      11.549      13.023    
  15.437      18.867      24.403      38.151      63.957      99.689      137.50      166.56      177.48      166.56    
  137.50      99.689      63.957      38.151      24.403      18.867      15.437      13.023      11.549      10.730    
  10.315      10.135      10.064      10.029      12.279      12.210      12.023      11.777      11.577      11.549    
  11.839      12.629      14.135      16.489      19.561      24.403      34.495      50.319      68.402      82.903    
  88.458      82.903      68.402      50.319      34.495      24.403      19.561      16.489      14.135      12.629    
  11.839      11.549      11.577      11.777      12.023      12.210      15.896      15.714      15.207      14.482    
  13.695      13.023      12.629      12.667      13.278      14.559      16.489      18.867      21.811      26.556    
  32.655      37.939      40.036      37.939      32.655      26.556      21.811      18.867      16.489      14.559    
  13.278      12.667      12.629      13.023      13.695      14.482      15.207      15.714      21.639      21.152    
  19.956      18.532      16.987      15.437      14.135      13.278      12.981      13.278      14.135      15.437    
  16.987      18.532      19.956      21.152      21.639      21.152      19.956      18.532      16.987      15.437    
  14.135      13.278      12.981      13.278      14.135      15.437      16.987      18.532      19.956      21.152    
  40.036      37.939      32.655      26.556      21.811      18.867      16.489      14.559      13.278      12.667    
  12.629      13.023      13.695      14.482      15.207      15.714      15.896      15.714      15.207      14.482    
  13.695      13.023      12.629      12.667      13.278      14.559      16.489      18.867      21.811      26.556    
  32.655      37.939      88.458      82.903      68.402      50.319      34.495      24.403      19.561      16.489    
  14.135      12.629      11.839      11.549      11.577      11.777      12.023      12.210      12.279      12.210    
  12.023      11.777      11.577      11.549      11.839      12.629      14.135      16.489      19.561      24.403    
  34.495      50.319      68.402      82.903      177.48      166.56      137.50      99.689      63.957      38.151    
  24.403      18.867      15.437      13.023      11.549      10.730      10.315      10.135      10.064      10.029    
  10.015      10.029      10.064      10.135      10.315      10.730      11.549      13.023      15.437      18.867    
  24.403      38.151      63.957      99.689      137.50      166.56      305.85      287.96      239.91      175.99    
  112.97      63.957      34.495      21.811      16.987      13.695      11.577      10.315      9.5922      9.1892    
  8.9436      8.7773      8.7119      8.7773      8.9436      9.1892      9.5922      10.315      11.577      13.695    
  16.987      21.811      34.495      63.957      112.97      175.99      239.91      287.96      458.54      432.81    
  363.42      270.08      175.99      99.689      50.319      26.556      18.532      14.482      11.777      10.135    
  9.1892      8.6655      8.3419      8.1116      8.0177      8.1116      8.3419      8.6655      9.1892      10.135    
  11.777      14.482      18.532      26.556      50.319      99.689      175.99      270.08      363.42      432.81    
  607.55      574.34      484.63      363.42      239.91      137.50      68.402      32.655      19.956      15.207    
  12.023      10.064      8.9436      8.3419      7.9780      7.7102      7.5976      7.7102      7.9780      8.3419    
  8.9436      10.064      12.023      15.207      19.956      32.655      68.402      137.50      239.91      363.42    
  484.63      574.34      717.65      678.93      574.34      432.81      287.96      166.56      82.903      37.939    
  21.152      15.714      12.210      10.029      8.7773      8.1116      7.7102      7.4090      7.2805      7.4090    
  7.7102      8.1116      8.7773      10.029      12.210      15.714      21.152      37.939      82.903      166.56    
  287.96      432.81      574.34      678.93      717.65      678.93      574.34      432.81      287.96      166.56    
  82.903      37.939      21.152      15.714      12.210      10.029      8.7773      8.1116      7.7102      7.4090    
  7.2805      7.4090      7.7102      8.1116      8.7773      10.029      12.210      15.714      21.152      37.939    
  82.903      166.56      287.96      432.81      574.34      678.93      678.93      642.16      542.79      408.40    
  271.02      156.27      77.718      36.014      20.709      15.536      12.142      10.041      8.8389      8.2003    
  7.8167      7.5307      7.4090      7.5307      7.8167      8.2003      8.8389      10.041      12.142      15.536    
  20.709      36.014      77.718      156.27      271.02      408.40      542.79      642.16      574.34      542.79    
  457.60      342.57      225.57      128.92      64.209      31.179      19.615      15.039      11.958      10.073    
  8.9963      8.4190      8.0710      7.8167      7.7102      7.8167      8.0710      8.4190      8.9963      10.073    
  11.958      15.039      19.615      31.179      64.209      128.92      225.57      342.57      457.60      542.79    
  432.81      408.40      342.57      254.13      165.20      93.444      47.439      25.631      18.268      14.330    
  11.718      10.138      9.2306      8.7283      8.4190      8.2003      8.1116      8.2003      8.4190      8.7283    
  9.2306      10.138      11.718      14.330      18.268      25.631      47.439      93.444      165.20      254.13    
  342.57      408.40      287.96      271.02      225.57      165.20      105.91      60.096      32.879      21.333    
  16.754      13.565      11.523      10.310      9.6166      9.2306      8.9963      8.8389      8.7773      8.8389    
  8.9963      9.2306      9.6166      10.310      11.523      13.565      16.754      21.333      32.879      60.096    
  105.91      165.20      225.57      271.02      166.56      156.27      128.92      93.444      60.096      36.235    
  23.697      18.578      15.244      12.912      11.494      10.707      10.310      10.138      10.073      10.041    
  10.029      10.041      10.073      10.138      10.310      10.707      11.494      12.912      15.244      18.578    
  23.697      36.235      60.096      93.444      128.92      156.27      82.903      77.718      64.209      47.439    
  32.879      23.697      19.248      16.258      13.981      12.530      11.770      11.494      11.523      11.718    
  11.958      12.142      12.210      12.142      11.958      11.718      11.523      11.494      11.770      12.530    
  13.981      16.258      19.248      23.697      32.879      47.439      64.209      77.718      37.939      36.014    
  31.179      25.631      21.333      18.578      16.258      14.388      13.152      12.565      12.530      12.912    
  13.565      14.330      15.039      15.536      15.714      15.536      15.039      14.330      13.565      12.912    
  12.530      12.565      13.152      14.388      16.258      18.578      21.333      25.631      31.179      36.014    
  21.152      20.709      19.615      18.268      16.754      15.244      13.981      13.152      12.865      13.152    
  13.981      15.244      16.754      18.268      19.615      20.709      21.152      20.709      19.615      18.268    
  16.754      15.244      13.981      13.152      12.865      13.152      13.981      15.244      16.754      18.268    
  19.615      20.709      15.714      15.536      15.039      14.330      13.565      12.912      12.530      12.565    
  13.152      14.388      16.258      18.578      21.333      25.631      31.179      36.014      37.939      36.014    
  31.179      25.631      21.333      18.578      16.258      14.388      13.152      12.565      12.530      12.912    
  13.565      14.330      15.039      15.536      12.210      12.142      11.958      11.718      11.523      11.494    
  11.770      12.530      13.981      16.258      19.248      23.697      32.879      47.439      64.209      77.718    
  82.903      77.718      64.209      47.439      32.879      23.697      19.248      16.258      13.981      12.530    
  11.770      11.494      11.523      11.718      11.958      12.142      10.029      10.041      10.073      10.138    
  10.310      10.707      11.494      12.912      15.244      18.578      23.697      36.235      60.096      93.444    
  128.92      156.27      166.56      156.27      128.92      93.444      60.096      36.235      23.697      18.578    
  15.244      12.912      11.494      10.707      10.310      10.138      10.073      10.041      8.7773      8.8389    
  8.9963      9.2306      9.6166      10.310      11.523      13.565      16.754      21.333      32.879      60.096    
  105.91      165.20      225.57      271.02      287.96      271.02      225.57      165.20      105.91      60.096    
  32.879      21.333      16.754      13.565      11.523      10.310      9.6166      9.2306      8.9963      8.8389    
  8.1116      8.2003      8.4190      8.7283      9.2306      10.138      11.718      14.330      18.268      25.631    
  47.439      93.444      165.20      254.13      342.57      408.40      432.81      408.40      342.57      254.13    
  165.20      93.444      47.439      25.631      18.268      14.330      11.718      10.138      9.2306      8.7283    
  8.4190      8.2003      7.7102      7.8167      8.0710      8.4190      8.9963      10.073      11.958      15.039    
  19.615      31.179      64.209      128.92      225.57      342.57      457.60      542.79      574.34      542.79    
  457.60      342.57      225.57      128.92      64.209      31.179      19.615      15.039      11.958      10.073    
  8.9963      8.4190      8.0710      7.8167      7.4090      7.5307      7.8167      8.2003      8.8389      10.041    
  12.142      15.536      20.709      36.014      77.718      156.27      271.02      408.40      542.79      642.16    
  678.93      642.16      542.79      408.40      271.02      156.27      77.718      36.014      20.709      15.536    
  12.142      10.041      8.8389      8.2003      7.8167      7.5307      7.2805      7.4090      7.7102      8.1116    
  8.7773      10.029      12.210      15.714      21.152      37.939      82.903      166.56      287.96      432.81    
  574.34      678.93      717.65      678.93      574.34      432.81      287.96      166.56      82.903      37.939    
  21.152      15.714      12.210      10.029      8.7773      8.1116      7.7102      7.4090      7.4090      7.5307    
  7.8167      8.2003      8.8389      10.041      12.142      15.536      20.709      36.014      77.718      156.27    
  271.02      408.40      542.79      642.16      678.93      642.16      542.79      408.40      271.02      156.27    
  77.718      36.014      20.709      15.536      12.142      10.041      8.8389      8.2003      7.8167      7.5307    
  7.7102      7.8167      8.0710      8.4190      8.9963      10.073      11.958      15.039      19.615      31.179    
  64.209      128.92      225.57      342.57      457.60      542.79      574.34      542.79      457.60      342.57    
  225.57      128.92      64.209      31.179      19.615      15.039      11.958      10.073      8.9963      8.4190    
  8.0710      7.8167      8.1116      8.2003      8.4190      8.7283      9.2306      10.138      11.718      14.330    
  18.268      25.631      47.439      93.444      165.20      254.13      342.57      408.40      432.81      408.40    
  342.57      254.13      165.20      93.444      47.439      25.631      18.268      14.330      11.718      10.138    
  9.2306      8.7283      8.4190      8.2003      8.7773      8.8389      8.9963      9.2306      9.6166      10.310    
  11.523      13.565      16.754      21.333      32.879      60.096      105.91      165.20      225.57      271.02    
  287.96      271.02      225.57      165.20      105.91      60.096      32.879      21.333      16.754      13.565    
  11.523      10.310      9.6166      9.2306      8.9963      8.8389      10.029      10.041      10.073      10.138    
  10.310      10.707      11.494      12.912      15.244      18.578      23.697      36.235      60.096      93.444    
  128.92      156.27      166.56      156.27      128.92      93.444      60.096      36.235      23.697      18.578    
  15.244      12.912      11.494      10.707      10.310      10.138      10.073      10.041      12.210      12.142    
  11.958      11.718      11.523      11.494      11.770      12.530      13.981      16.258      19.248      23.697    
  32.879      47.439      64.209      77.718      82.903      77.718      64.209      47.439      32.879      23.697    
  19.248      16.258      13.981      12.530      11.770      11.494      11.523      11.718      11.958      12.142    
  15.714      15.536      15.039      14.330      13.565      12.912      12.530      12.565      13.152      14.388    
  16.258      18.578      21.333      25.631      31.179      36.014      37.939      36.014      31.179      25.631    
  21.333      18.578      16.258      14.388      13.152      12.565      12.530      12.912      13.565      14.330    
  15.039      15.536      21.152      20.709      19.615      18.268      16.754      15.244      13.981      13.152    
  12.865      13.152      13.981      15.244      16.754      18.268      19.615      20.709      21.152      20.709    
  19.615      18.268      16.754      15.244      13.981      13.152      12.865      13.152      13.981      15.244    
  16.754      18.268      19.615      20.709      37.939      36.014      31.179      25.631      21.333      18.578    
  16.258      14.388      13.152      12.565      12.530      12.912      13.565      14.330      15.039      15.536    
  15.714      15.536      15.039      14.330      13.565      12.912      12.530      12.565      13.152      14.388    
  16.258      18.578      21.333      25.631      31.179      36.014      82.903      77.718      64.209      47.439    
  32.879      23.697      19.248      16.258      13.981      12.530      11.770      11.494      11.523      11.718    
  11.958      12.142      12.210      12.142      11.958      11.718      11.523      11.494      11.770      12.530    
  13.981      16.258      19.248      23.697      32.879      47.439      64.209      77.718      166.56      156.27    
  128.92      93.444      60.096      36.235      23.697      18.578      15.244      12.912      11.494      10.707    
  10.310      10.138      10.073      10.041      10.029      10.041      10.073      10.138      10.310      10.707    
  11.494      12.912      15.244      18.578      23.697      36.235      60.096      93.444      128.92      156.27    
  287.96      271.02      225.57      165.20      105.91      60.096      32.879      21.333      16.754      13.565    
  11.523      10.310      9.6166      9.2306      8.9963      8.8389      8.7773      8.8389      8.9963      9.2306    
  9.6166      10.310      11.523      13.565      16.754      21.333      32.879      60.096      105.91      165.20    
  225.57      271.02      432.81      408.40      342.57      254.13      165.20      93.444      47.439      25.631    
  18.268      14.330      11.718      10.138      9.2306      8.7283      8.4190      8.2003      8.1116      8.2003    
  8.4190      8.7283      9.2306      10.138      11.718      14.330      18.268      25.631      47.439      93.444    
  165.20      254.13      342.57      408.40      574.34      542.79      457.60      342.57      225.57      128.92    
  64.209      31.179      19.615      15.039      11.958      10.073      8.9963      8.4190      8.0710      7.8167    
  7.7102      7.8167      8.0710      8.4190      8.9963      10.073      11.958      15.039      19.615      31.179    
  64.209      128.92      225.57      342.57      457.60      542.79      678.93      642.16      542.79      408.40    
  271.02      156.27      77.718      36.014      20.709      15.536      12.142      10.041      8.8389      8.2003    
  7.8167      7.5307      7.4090      7.5307      7.8167      8.2003      8.8389      10.041      12.142      15.536    
  20.709      36.014      77.718      156.27      271.02      408.40      542.79      642.16      607.55      574.34    
  484.63      363.42      239.91      137.50      68.402      32.655      19.956      15.207      12.023      10.064    
  8.9436      8.3419      7.9780      7.7102      7.5976      7.7102      7.9780      8.3419      8.9436      10.064    
  12.023      15.207      19.956      32.655      68.402      137.50      239.91      363.42      484.63      574.34    
  574.34      542.79      457.60      342.57      225.57      128.92      64.209      31.179      19.615      15.039    
  11.958      10.073      8.9963      8.4190      8.0710      7.8167      7.7102      7.8167      8.0710      8.4190    
  8.9963      10.073      11.958      15.039      19.615      31.179      64.209      128.92      225.57      342.57    
  457.60      542.79      484.63      457.60      384.67      286.45      187.17      106.23      53.356      27.506    
  18.736      14.573      11.785      10.096      9.1330      8.6118      8.2967      8.0710      7.9780      8.0710    
  8.2967      8.6118      9.1330      10.096      11.785      14.573      18.736      27.506      53.356      106.23    
  187.17      286.45      384.67      457.60      363.42      342.57      286.45      211.34      136.48      77.056    
  40.075      23.354      17.522      13.914      11.561      10.151      9.3412      8.8898      8.6118      8.4190    
  8.3419      8.4190      8.6118      8.8898      9.3412      10.151      11.561      13.914      17.522      23.354    
  40.075      77.056      136.48      211.34      286.45      342.57      239.91      225.57      187.17      136.48    
  87.292      50.111      28.829      20.132      16.102      13.208      11.379      10.301      9.6857      9.3412    
  9.1330      8.9963      8.9436      8.9963      9.1330      9.3412      9.6857      10.301      11.379      13.208    
  16.102      20.132      28.829      50.111      87.292      136.48      187.17      225.57      137.50      128.92    
  106.23      77.056      50.111      31.399      21.945      17.758      14.707      12.610      11.347      10.651    
  10.301      10.151      10.096      10.073      10.064      10.073      10.096      10.151      10.301      10.651    
  11.347      12.610      14.707      17.758      21.945      31.399      50.111      77.056      106.23      128.92    
  68.402      64.209      53.356      40.075      28.829      21.945      18.370      15.613      13.554      12.259    
  11.588      11.347      11.379      11.561      11.785      11.958      12.023      11.958      11.785      11.561    
  11.379      11.347      11.588      12.259      13.554      15.613      18.370      21.945      28.829      40.075    
  53.356      64.209      32.655      31.179      27.506      23.354      20.132      17.758      15.613      13.914    
  12.805      12.284      12.259      12.610      13.208      13.914      14.573      15.039      15.207      15.039    
  14.573      13.914      13.208      12.610      12.259      12.284      12.805      13.914      15.613      17.758    
  20.132      23.354      27.506      31.179      19.956      19.615      18.736      17.522      16.102      14.707    
  13.554      12.805      12.547      12.805      13.554      14.707      16.102      17.522      18.736      19.615    
  19.956      19.615      18.736      17.522      16.102      14.707      13.554      12.805      12.547      12.805    
  13.554      14.707      16.102      17.522      18.736      19.615      15.207      15.039      14.573      13.914    
  13.208      12.610      12.259      12.284      12.805      13.914      15.613      17.758      20.132      23.354    
  27.506      31.179      32.655      31.179      27.506      23.354      20.132      17.758      15.613      13.914    
  12.805      12.284      12.259      12.610      13.208      13.914      14.573      15.039      12.023      11.958    
  11.785      11.561      11.379      11.347      11.588      12.259      13.554      15.613      18.370      21.945    
  28.829      40.075      53.356      64.209      68.402      64.209      53.356      40.075      28.829      21.945    
  18.370      15.613      13.554      12.259      11.588      11.347      11.379      11.561      11.785      11.958    
  10.064      10.073      10.096      10.151      10.301      10.651      11.347      12.610      14.707      17.758    
  21.945      31.399      50.111      77.056      106.23      128.92      137.50      128.92      106.23      77.056    
  50.111      31.399      21.945      17.758      14.707      12.610      11.347      10.651      10.301      10.151    
  10.096      10.073      8.9436      8.9963      9.1330      9.3412      9.6857      10.301      11.379      13.208    
  16.102      20.132      28.829      50.111      87.292      136.48      187.17      225.57      239.91      225.57    