unknown system                          
   1.00000000000000     
     3.509554    0.000000    0.000000
     0.000000    3.509554    0.000000
     0.000000    0.000000    3.509554
   Cu
     4
Direct
  0.000000  0.000000  0.000000
  0.500000  0.500000  0.000000
  0.500000  0.000000  0.500000
  0.000000  0.500000  0.500000
 
   32   32   32
 0.75840047866E+03 0.71764774705E+03 0.60754814308E+03 0.45854004727E+03 0.30585014712E+03
 0.17748212930E+03 0.88458197886E+02 0.40036395458E+02 0.21638613052E+02 0.15895795359E+02
 0.12279000580E+02 0.10014703574E+02 0.87118521598E+01 0.80176696845E+01 0.75976431817E+01
 0.72804553534E+01 0.71446322956E+01 0.72804553534E+01 0.75976431817E+01 0.80176696845E+01
 0.87118521598E+01 0.10014703574E+02 0.12279000580E+02 0.15895795359E+02 0.21638613052E+02
 0.40036395458E+02 0.88458197886E+02 0.17748212930E+03 0.30585014712E+03 0.45854004727E+03
 0.60754814308E+03 0.71764774705E+03 0.71764774705E+03 0.67893318272E+03 0.57433682682E+03
 0.43281202002E+03 0.28796021886E+03 0.16655764457E+03 0.82903020885E+02 0.37938836367E+02
 0.21151739245E+02 0.15714077682E+02 0.12210223635E+02 0.10028649118E+02 0.87773112071E+01
 0.81115636869E+01 0.77102208635E+01 0.74090223896E+01 0.72804553534E+01 0.74090223896E+01
 0.77102208635E+01 0.81115636869E+01 0.87773112071E+01 0.10028649118E+02 0.12210223635E+02
 0.15714077682E+02 0.21151739245E+02 0.37938836367E+02 0.82903020885E+02 0.16655764457E+03
 0.28796021886E+03 0.43281202002E+03 0.57433682682E+03 0.67893318272E+03 0.60754814308E+03
 0.57433682682E+03 0.48462912443E+03 0.36341831349E+03 0.23991496124E+03 0.13749854198E+03
 0.68401807578E+02 0.32655091084E+02 0.19956027365E+02 0.15206790237E+02 0.12022527636E+02
 0.10064295446E+02 0.89436029648E+01 0.83419443788E+01 0.79779854776E+01 0.77102208635E+01
 0.75976431817E+01 0.77102208635E+01 0.79779854776E+01 0.83419443788E+01 0.89436029648E+01
 0.10064295446E+02 0.12022527636E+02 0.15206790237E+02 0.19956027365E+02 0.32655091084E+02
 0.68401807578E+02 0.13749854198E+03 0.23991496124E+03 0.36341831349E+03 0.48462912443E+03
 0.57433682682E+03 0.45854004727E+03 0.43281202002E+03 0.36341831349E+03 0.27007514624E+03
 0.17598860661E+03 0.99689000494E+02 0.50319326428E+02 0.26555509028E+02 0.18532144285E+02
 0.14481568505E+02 0.11777015155E+02 0.10135065168E+02 0.91892428204E+01 0.86655131419E+01
 0.83419443788E+01 0.81115636869E+01 0.80176696845E+01 0.81115636869E+01 0.83419443788E+01
 0.86655131419E+01 0.91892428204E+01 0.10135065168E+02 0.11777015155E+02 0.14481568505E+02
 0.18532144285E+02 0.26555509028E+02 0.50319326428E+02 0.99689000494E+02 0.17598860661E+03
 0.27007514624E+03 0.36341831349E+03 0.43281202002E+03 0.30585014712E+03 0.28796021886E+03
 0.23991496124E+03 0.17598860661E+03 0.11297308214E+03 0.63956806045E+02 0.34494920994E+02
 0.21810812351E+02 0.16987038819E+02 0.13695405221E+02 0.11576783863E+02 0.10314932351E+02
 0.95921900603E+01 0.91892428204E+01 0.89436029648E+01 0.87773112071E+01 0.87118521598E+01
 0.87773112071E+01 0.89436029648E+01 0.91892428204E+01 0.95921900603E+01 0.10314932351E+02
 0.11576783863E+02 0.13695405221E+02 0.16987038819E+02 0.21810812351E+02 0.34494920994E+02
 0.63956806045E+02 0.11297308214E+03 0.17598860661E+03 0.23991496124E+03 0.28796021886E+03
 0.17748212930E+03 0.16655764457E+03 0.13749854198E+03 0.99689000494E+02 0.63956806045E+02
 0.38150824857E+02 0.24403352429E+02 0.18866895107E+02 0.15437198465E+02 0.13022579118E+02
 0.11549077139E+02 0.10729633922E+02 0.10314932351E+02 0.10135065168E+02 0.10064295446E+02
 0.10028649118E+02 0.10014703574E+02 0.10028649118E+02 0.10064295446E+02 0.10135065168E+02
 0.10314932351E+02 0.10729633922E+02 0.11549077139E+02 0.13022579118E+02 0.15437198465E+02
 0.18866895107E+02 0.24403352429E+02 0.38150824857E+02 0.63956806045E+02 0.99689000494E+02
 0.13749854198E+03 0.16655764457E+03 0.88458197886E+02 0.82903020885E+02 0.68401807578E+02
 0.50319326428E+02 0.34494920994E+02 0.24403352429E+02 0.19560800283E+02 0.16489015017E+02
 0.14135220587E+02 0.12628897084E+02 0.11838525622E+02 0.11549077139E+02 0.11576783863E+02
 0.11777015155E+02 0.12022527636E+02 0.12210223635E+02 0.12279000580E+02 0.12210223635E+02
 0.12022527636E+02 0.11777015155E+02 0.11576783863E+02 0.11549077139E+02 0.11838525622E+02
 0.12628897084E+02 0.14135220587E+02 0.16489015017E+02 0.19560800283E+02 0.24403352429E+02
 0.34494920994E+02 0.50319326428E+02 0.68401807578E+02 0.82903020885E+02 0.40036395458E+02
 0.37938836367E+02 0.32655091084E+02 0.26555509028E+02 0.21810812351E+02 0.18866895107E+02
 0.16489015017E+02 0.14559062859E+02 0.13278293988E+02 0.12667216702E+02 0.12628897084E+02
 0.13022579118E+02 0.13695405221E+02 0.14481568505E+02 0.15206790237E+02 0.15714077682E+02
 0.15895795359E+02 0.15714077682E+02 0.15206790237E+02 0.14481568505E+02 0.13695405221E+02
 0.13022579118E+02 0.12628897084E+02 0.12667216702E+02 0.13278293988E+02 0.14559062859E+02
 0.16489015017E+02 0.18866895107E+02 0.21810812351E+02 0.26555509028E+02 0.32655091084E+02
 0.37938836367E+02 0.21638613052E+02 0.21151739245E+02 0.19956027365E+02 0.18532144285E+02
 0.16987038819E+02 0.15437198465E+02 0.14135220587E+02 0.13278293988E+02 0.12980737696E+02
 0.13278293988E+02 0.14135220587E+02 0.15437198465E+02 0.16987038819E+02 0.18532144285E+02
 0.19956027365E+02 0.21151739245E+02 0.21638613052E+02 0.21151739245E+02 0.19956027365E+02
 0.18532144285E+02 0.16987038819E+02 0.15437198465E+02 0.14135220587E+02 0.13278293988E+02
 0.12980737696E+02 0.13278293988E+02 0.14135220587E+02 0.15437198465E+02 0.16987038819E+02
 0.18532144285E+02 0.19956027365E+02 0.21151739245E+02 0.15895795359E+02 0.15714077682E+02
 0.15206790237E+02 0.14481568505E+02 0.13695405221E+02 0.13022579118E+02 0.12628897084E+02
 0.12667216702E+02 0.13278293988E+02 0.14559062859E+02 0.16489015017E+02 0.18866895107E+02
 0.21810812351E+02 0.26555509028E+02 0.32655091084E+02 0.37938836367E+02 0.40036395458E+02
 0.37938836367E+02 0.32655091084E+02 0.26555509028E+02 0.21810812351E+02 0.18866895107E+02
 0.16489015017E+02 0.14559062859E+02 0.13278293988E+02 0.12667216702E+02 0.12628897084E+02
 0.13022579118E+02 0.13695405221E+02 0.14481568505E+02 0.15206790237E+02 0.15714077682E+02
 0.12279000580E+02 0.12210223635E+02 0.12022527636E+02 0.11777015155E+02 0.11576783863E+02
 0.11549077139E+02 0.11838525622E+02 0.12628897084E+02 0.14135220587E+02 0.16489015017E+02
 0.19560800283E+02 0.24403352429E+02 0.34494920994E+02 0.50319326428E+02 0.68401807578E+02
 0.82903020885E+02 0.88458197886E+02 0.82903020885E+02 0.68401807578E+02 0.50319326428E+02
 0.34494920994E+02 0.24403352429E+02 0.19560800283E+02 0.16489015017E+02 0.14135220587E+02
 0.12628897084E+02 0.11838525622E+02 0.11549077139E+02 0.11576783863E+02 0.11777015155E+02
 0.12022527636E+02 0.12210223635E+02 0.10014703574E+02 0.10028649118E+02 0.10064295446E+02
 0.10135065168E+02 0.10314932351E+02 0.10729633922E+02 0.11549077139E+02 0.13022579118E+02
 0.15437198465E+02 0.18866895107E+02 0.24403352429E+02 0.38150824857E+02 0.63956806045E+02
 0.99689000494E+02 0.13749854198E+03 0.16655764457E+03 0.17748212930E+03 0.16655764457E+03
 0.13749854198E+03 0.99689000494E+02 0.63956806045E+02 0.38150824857E+02 0.24403352429E+02
 0.18866895107E+02 0.15437198465E+02 0.13022579118E+02 0.11549077139E+02 0.10729633922E+02
 0.10314932351E+02 0.10135065168E+02 0.10064295446E+02 0.10028649118E+02 0.87118521598E+01
 0.87773112071E+01 0.89436029648E+01 0.91892428204E+01 0.95921900603E+01 0.10314932351E+02
 0.11576783863E+02 0.13695405221E+02 0.16987038819E+02 0.21810812351E+02 0.34494920994E+02
 0.63956806045E+02 0.11297308214E+03 0.17598860661E+03 0.23991496124E+03 0.28796021886E+03
 0.30585014712E+03 0.28796021886E+03 0.23991496124E+03 0.17598860661E+03 0.11297308214E+03
 0.63956806045E+02 0.34494920994E+02 0.21810812351E+02 0.16987038819E+02 0.13695405221E+02
 0.11576783863E+02 0.10314932351E+02 0.95921900603E+01 0.91892428204E+01 0.89436029648E+01
 0.87773112071E+01 0.80176696845E+01 0.81115636869E+01 0.83419443788E+01 0.86655131419E+01
 0.91892428204E+01 0.10135065168E+02 0.11777015155E+02 0.14481568505E+02 0.18532144285E+02
 0.26555509028E+02 0.50319326428E+02 0.99689000494E+02 0.17598860661E+03 0.27007514624E+03
 0.36341831349E+03 0.43281202002E+03 0.45854004727E+03 0.43281202002E+03 0.36341831349E+03
 0.27007514624E+03 0.17598860661E+03 0.99689000494E+02 0.50319326428E+02 0.26555509028E+02
 0.18532144285E+02 0.14481568505E+02 0.11777015155E+02 0.10135065168E+02 0.91892428204E+01
 0.86655131419E+01 0.83419443788E+01 0.81115636869E+01 0.75976431817E+01 0.77102208635E+01
 0.79779854776E+01 0.83419443788E+01 0.89436029648E+01 0.10064295446E+02 0.12022527636E+02
 0.15206790237E+02 0.19956027365E+02 0.32655091084E+02 0.68401807578E+02 0.13749854198E+03
 0.23991496124E+03 0.36341831349E+03 0.48462912443E+03 0.57433682682E+03 0.60754814308E+03
 0.57433682682E+03 0.48462912443E+03 0.36341831349E+03 0.23991496124E+03 0.13749854198E+03
 0.68401807578E+02 0.32655091084E+02 0.19956027365E+02 0.15206790237E+02 0.12022527636E+02
 0.10064295446E+02 0.89436029648E+01 0.83419443788E+01 0.79779854776E+01 0.77102208635E+01
 0.72804553534E+01 0.74090223896E+01 0.77102208635E+01 0.81115636869E+01 0.87773112071E+01
 0.10028649118E+02 0.12210223635E+02 0.15714077682E+02 0.21151739245E+02 0.37938836367E+02
 0.82903020885E+02 0.16655764457E+03 0.28796021886E+03 0.43281202002E+03 0.57433682682E+03
 0.67893318272E+03 0.71764774705E+03 0.67893318272E+03 0.57433682682E+03 0.43281202002E+03
 0.28796021886E+03 0.16655764457E+03 0.82903020885E+02 0.37938836367E+02 0.21151739245E+02
 0.15714077682E+02 0.12210223635E+02 0.10028649118E+02 0.87773112071E+01 0.81115636869E+01
 0.77102208635E+01 0.74090223896E+01 0.71446322956E+01 0.72804553534E+01 0.75976431817E+01
 0.80176696845E+01 0.87118521598E+01 0.10014703574E+02 0.12279000580E+02 0.15895795359E+02
 0.21638613052E+02 0.40036395458E+02 0.88458197886E+02 0.17748212930E+03 0.30585014712E+03
 0.45854004727E+03 0.60754814308E+03 0.71764774705E+03 0.75840047866E+03 0.71764774705E+03
 0.60754814308E+03 0.45854004727E+03 0.30585014712E+03 0.17748212930E+03 0.88458197886E+02
 0.40036395458E+02 0.21638613052E+02 0.15895795359E+02 0.12279000580E+02 0.10014703574E+02
 0.87118521598E+01 0.80176696845E+01 0.75976431817E+01 0.72804553534E+01 0.72804553534E+01
 0.74090223896E+01 0.77102208635E+01 0.81115636869E+01 0.87773112071E+01 0.10028649118E+02
 0.12210223635E+02 0.15714077682E+02 0.21151739245E+02 0.37938836367E+02 0.82903020885E+02
 0.16655764457E+03 0.28796021886E+03 0.43281202002E+03 0.57433682682E+03 0.67893318272E+03
 0.71764774705E+03 0.67893318272E+03 0.57433682682E+03 0.43281202002E+03 0.28796021886E+03
 0.16655764457E+03 0.82903020885E+02 0.37938836367E+02 0.21151739245E+02 0.15714077682E+02
 0.12210223635E+02 0.10028649118E+02 0.87773112071E+01 0.81115636869E+01 0.77102208635E+01
 0.74090223896E+01 0.75976431817E+01 0.77102208635E+01 0.79779854776E+01 0.83419443788E+01
 0.89436029648E+01 0.10064295446E+02 0.12022527636E+02 0.15206790237E+02 0.19956027365E+02
 0.32655091084E+02 0.68401807578E+02 0.13749854198E+03 0.23991496124E+03 0.36341831349E+03
 0.48462912443E+03 0.57433682682E+03 0.60754814308E+03 0.57433682682E+03 0.48462912443E+03
 0.36341831349E+03 0.23991496124E+03 0.13749854198E+03 0.68401807578E+02 0.32655091084E+02
 0.19956027365E+02 0.15206790237E+02 0.12022527636E+02 0.10064295446E+02 0.89436029648E+01
 0.83419443788E+01 0.79779854776E+01 0.77102208635E+01 0.80176696845E+01 0.81115636869E+01
 0.83419443788E+01 0.86655131419E+01 0.91892428204E+01 0.10135065168E+02 0.11777015155E+02
 0.14481568505E+02 0.18532144285E+02 0.26555509028E+02 0.50319326428E+02 0.99689000494E+02
 0.17598860661E+03 0.27007514624E+03 0.36341831349E+03 0.43281202002E+03 0.45854004727E+03
 0.43281202002E+03 0.36341831349E+03 0.27007514624E+03 0.17598860661E+03 0.99689000494E+02
 0.50319326428E+02 0.26555509028E+02 0.18532144285E+02 0.14481568505E+02 0.11777015155E+02
 0.10135065168E+02 0.91892428204E+01 0.86655131419E+01 0.83419443788E+01 0.81115636869E+01
 0.87118521598E+01 0.87773112071E+01 0.89436029648E+01 0.91892428204E+01 0.95921900603E+01
 0.10314932351E+02 0.11576783863E+02 0.13695405221E+02 0.16987038819E+02 0.21810812351E+02
 0.34494920994E+02 0.63956806045E+02 0.11297308214E+03 0.17598860661E+03 0.23991496124E+03
 0.28796021886E+03 0.30585014712E+03 0.28796021886E+03 0.23991496124E+03 0.17598860661E+03
 0.11297308214E+03 0.63956806045E+02 0.34494920994E+02 0.21810812351E+02 0.16987038819E+02
 0.13695405221E+02 0.11576783863E+02 0.10314932351E+02 0.95921900603E+01 0.91892428204E+01
 0.89436029648E+01 0.87773112071E+01 0.10014703574E+02 0.10028649118E+02 0.10064295446E+02
 0.10135065168E+02 0.10314932351E+02 0.10729633922E+02 0.11549077139E+02 0.13022579118E+02
 0.15437198465E+02 0.18866895107E+02 0.24403352429E+02 0.38150824857E+02 0.63956806045E+02
 0.99689000494E+02 0.13749854198E+03 0.16655764457E+03 0.17748212930E+03 0.16655764457E+03
 0.13749854198E+03 0.99689000494E+02 0.63956806045E+02 0.38150824857E+02 0.24403352429E+02
 0.18866895107E+02 0.15437198465E+02 0.13022579118E+02 0.11549077139E+02 0.10729633922E+02
 0.10314932351E+02 0.10135065168E+02 0.10064295446E+02 0.10028649118E+02 0.12279000580E+02
 0.12210223635E+02 0.12022527636E+02 0.11777015155E+02 0.11576783863E+02 0.11549077139E+02
 0.11838525622E+02 0.12628897084E+02 0.14135220587E+02 0.16489015017E+02 0.19560800283E+02
 0.24403352429E+02 0.34494920994E+02 0.50319326428E+02 0.68401807578E+02 0.82903020885E+02
 0.88458197886E+02 0.82903020885E+02 0.68401807578E+02 0.50319326428E+02 0.34494920994E+02
 0.24403352429E+02 0.19560800283E+02 0.16489015017E+02 0.14135220587E+02 0.12628897084E+02
 0.11838525622E+02 0.11549077139E+02 0.11576783863E+02 0.11777015155E+02 0.12022527636E+02
 0.12210223635E+02 0.15895795359E+02 0.15714077682E+02 0.15206790237E+02 0.14481568505E+02
 0.13695405221E+02 0.13022579118E+02 0.12628897084E+02 0.12667216702E+02 0.13278293988E+02
 0.14559062859E+02 0.16489015017E+02 0.18866895107E+02 0.21810812351E+02 0.26555509028E+02
 0.32655091084E+02 0.37938836367E+02 0.40036395458E+02 0.37938836367E+02 0.32655091084E+02
 0.26555509028E+02 0.21810812351E+02 0.18866895107E+02 0.16489015017E+02 0.14559062859E+02
 0.13278293988E+02 0.12667216702E+02 0.12628897084E+02 0.13022579118E+02 0.13695405221E+02
 0.14481568505E+02 0.15206790237E+02 0.15714077682E+02 0.21638613052E+02 0.21151739245E+02
 0.19956027365E+02 0.18532144285E+02 0.16987038819E+02 0.15437198465E+02 0.14135220587E+02
 0.13278293988E+02 0.12980737696E+02 0.13278293988E+02 0.14135220587E+02 0.15437198465E+02
 0.16987038819E+02 0.18532144285E+02 0.19956027365E+02 0.21151739245E+02 0.21638613052E+02
 0.21151739245E+02 0.19956027365E+02 0.18532144285E+02 0.16987038819E+02 0.15437198465E+02
 0.14135220587E+02 0.13278293988E+02 0.12980737696E+02 0.13278293988E+02 0.14135220587E+02
 0.15437198465E+02 0.16987038819E+02 0.18532144285E+02 0.19956027365E+02 0.21151739245E+02
 0.40036395458E+02 0.37938836367E+02 0.32655091084E+02 0.26555509028E+02 0.21810812351E+02
 0.18866895107E+02 0.16489015017E+02 0.14559062859E+02 0.13278293988E+02 0.12667216702E+02
 0.12628897084E+02 0.13022579118E+02 0.13695405221E+02 0.14481568505E+02 0.15206790237E+02
 0.15714077682E+02 0.15895795359E+02 0.15714077682E+02 0.15206790237E+02 0.14481568505E+02
 0.13695405221E+02 0.13022579118E+02 0.12628897084E+02 0.12667216702E+02 0.13278293988E+02
 0.14559062859E+02 0.16489015017E+02 0.18866895107E+02 0.21810812351E+02 0.26555509028E+02
 0.32655091084E+02 0.37938836367E+02 0.88458197886E+02 0.82903020885E+02 0.68401807578E+02
 0.50319326428E+02 0.34494920994E+02 0.24403352429E+02 0.19560800283E+02 0.16489015017E+02
 0.14135220587E+02 0.12628897084E+02 0.11838525622E+02 0.11549077139E+02 0.11576783863E+02
 0.11777015155E+02 0.12022527636E+02 0.12210223635E+02 0.12279000580E+02 0.12210223635E+02
 0.12022527636E+02 0.11777015155E+02 0.11576783863E+02 0.11549077139E+02 0.11838525622E+02
 0.12628897084E+02 0.14135220587E+02 0.16489015017E+02 0.19560800283E+02 0.24403352429E+02
 0.34494920994E+02 0.50319326428E+02 0.68401807578E+02 0.82903020885E+02 0.17748212930E+03
 0.16655764457E+03 0.13749854198E+03 0.99689000494E+02 0.63956806045E+02 0.38150824857E+02
 0.24403352429E+02 0.18866895107E+02 0.15437198465E+02 0.13022579118E+02 0.11549077139E+02
 0.10729633922E+02 0.10314932351E+02 0.10135065168E+02 0.10064295446E+02 0.10028649118E+02
 0.10014703574E+02 0.10028649118E+02 0.10064295446E+02 0.10135065168E+02 0.10314932351E+02
 0.10729633922E+02 0.11549077139E+02 0.13022579118E+02 0.15437198465E+02 0.18866895107E+02
 0.24403352429E+02 0.38150824857E+02 0.63956806045E+02 0.99689000494E+02 0.13749854198E+03
 0.16655764457E+03 0.30585014712E+03 0.28796021886E+03 0.23991496124E+03 0.17598860661E+03
 0.11297308214E+03 0.63956806045E+02 0.34494920994E+02 0.21810812351E+02 0.16987038819E+02
 0.13695405221E+02 0.11576783863E+02 0.10314932351E+02 0.95921900603E+01 0.91892428204E+01
 0.89436029648E+01 0.87773112071E+01 0.87118521598E+01 0.87773112071E+01 0.89436029648E+01
 0.91892428204E+01 0.95921900603E+01 0.10314932351E+02 0.11576783863E+02 0.13695405221E+02
 0.16987038819E+02 0.21810812351E+02 0.34494920994E+02 0.63956806045E+02 0.11297308214E+03
 0.17598860661E+03 0.23991496124E+03 0.28796021886E+03 0.45854004727E+03 0.43281202002E+03
 0.36341831349E+03 0.27007514624E+03 0.17598860661E+03 0.99689000494E+02 0.50319326428E+02
 0.26555509028E+02 0.18532144285E+02 0.14481568505E+02 0.11777015155E+02 0.10135065168E+02
 0.91892428204E+01 0.86655131419E+01 0.83419443788E+01 0.81115636869E+01 0.80176696845E+01
 0.81115636869E+01 0.83419443788E+01 0.86655131419E+01 0.91892428204E+01 0.10135065168E+02
 0.11777015155E+02 0.14481568505E+02 0.18532144285E+02 0.26555509028E+02 0.50319326428E+02
 0.99689000494E+02 0.17598860661E+03 0.27007514624E+03 0.36341831349E+03 0.43281202002E+03
 0.60754814308E+03 0.57433682682E+03 0.48462912443E+03 0.36341831349E+03 0.23991496124E+03
 0.13749854198E+03 0.68401807578E+02 0.32655091084E+02 0.19956027365E+02 0.15206790237E+02
 0.12022527636E+02 0.10064295446E+02 0.89436029648E+01 0.83419443788E+01 0.79779854776E+01
 0.77102208635E+01 0.75976431817E+01 0.77102208635E+01 0.79779854776E+01 0.83419443788E+01
 0.89436029648E+01 0.10064295446E+02 0.12022527636E+02 0.15206790237E+02 0.19956027365E+02
 0.32655091084E+02 0.68401807578E+02 0.13749854198E+03 0.23991496124E+03 0.36341831349E+03
 0.48462912443E+03 0.57433682682E+03 0.71764774705E+03 0.67893318272E+03 0.57433682682E+03
 0.43281202002E+03 0.28796021886E+03 0.16655764457E+03 0.82903020885E+02 0.37938836367E+02
 0.21151739245E+02 0.15714077682E+02 0.12210223635E+02 0.10028649118E+02 0.87773112071E+01
 0.81115636869E+01 0.77102208635E+01 0.74090223896E+01 0.72804553534E+01 0.74090223896E+01
 0.77102208635E+01 0.81115636869E+01 0.87773112071E+01 0.10028649118E+02 0.12210223635E+02
 0.15714077682E+02 0.21151739245E+02 0.37938836367E+02 0.82903020885E+02 0.16655764457E+03
 0.28796021886E+03 0.43281202002E+03 0.57433682682E+03 0.67893318272E+03 0.71764774705E+03
 0.67893318272E+03 0.57433682682E+03 0.43281202002E+03 0.28796021886E+03 0.16655764457E+03
 0.82903020885E+02 0.37938836367E+02 0.21151739245E+02 0.15714077682E+02 0.12210223635E+02
 0.10028649118E+02 0.87773112071E+01 0.81115636869E+01 0.77102208635E+01 0.74090223896E+01
 0.72804553534E+01 0.74090223896E+01 0.77102208635E+01 0.81115636869E+01 0.87773112071E+01
 0.10028649118E+02 0.12210223635E+02 0.15714077682E+02 0.21151739245E+02 0.37938836367E+02
 0.82903020885E+02 0.16655764457E+03 0.28796021886E+03 0.43281202002E+03 0.57433682682E+03
 0.67893318272E+03 0.67893318272E+03 0.64215532073E+03 0.54279311789E+03 0.40839679762E+03
 0.27102233272E+03 0.15626511190E+03 0.77717710571E+02 0.36013910052E+02 0.20709475920E+02
 0.15535701172E+02 0.12142462888E+02 0.10040844139E+02 0.88389355940E+01 0.82003319480E+01
 0.78167431462E+01 0.75307095112E+01 0.74090223896E+01 0.75307095112E+01 0.78167431462E+01
 0.82003319480E+01 0.88389355940E+01 0.10040844139E+02 0.12142462888E+02 0.15535701172E+02
 0.20709475920E+02 0.36013910052E+02 0.77717710571E+02 0.15626511190E+03 0.27102233272E+03
 0.40839679762E+03 0.54279311789E+03 0.64215532073E+03 0.57433682682E+03 0.54279311789E+03
 0.45760348399E+03 0.34257045144E+03 0.22556788756E+03 0.12892077413E+03 0.64208874683E+02
 0.31179499175E+02 0.19614863768E+02 0.15038689172E+02 0.11958182174E+02 0.10072584823E+02
 0.89962591898E+01 0.84190146929E+01 0.80710392850E+01 0.78167431462E+01 0.77102208635E+01
 0.78167431462E+01 0.80710392850E+01 0.84190146929E+01 0.89962591898E+01 0.10072584823E+02
 0.11958182174E+02 0.15038689172E+02 0.19614863768E+02 0.31179499175E+02 0.64208874683E+02
 0.12892077413E+03 0.22556788756E+03 0.34257045144E+03 0.45760348399E+03 0.54279311789E+03
 0.43281202002E+03 0.40839679762E+03 0.34257045144E+03 0.25412524916E+03 0.16519940295E+03
 0.93443966247E+02 0.47439074791E+02 0.25630986410E+02 0.18267903492E+02 0.14330358023E+02
 0.11718160919E+02 0.10138493253E+02 0.92305546891E+01 0.87282578369E+01 0.84190146929E+01
 0.82003319480E+01 0.81115636869E+01 0.82003319480E+01 0.84190146929E+01 0.87282578369E+01
 0.92305546891E+01 0.10138493253E+02 0.11718160919E+02 0.14330358023E+02 0.18267903492E+02
 0.25630986410E+02 0.47439074791E+02 0.93443966247E+02 0.16519940295E+03 0.25412524916E+03
 0.34257045144E+03 0.40839679762E+03 0.28796021886E+03 0.27102233272E+03 0.22556788756E+03
 0.16519940295E+03 0.10590735680E+03 0.60095583479E+02 0.32879329677E+02 0.21333042055E+02
 0.16754297780E+02 0.13565035449E+02 0.11522587887E+02 0.10309907461E+02 0.96166281876E+01
 0.92305546891E+01 0.89962591898E+01 0.88389355940E+01 0.87773112071E+01 0.88389355940E+01
 0.89962591898E+01 0.92305546891E+01 0.96166281876E+01 0.10309907461E+02 0.11522587887E+02
 0.13565035449E+02 0.16754297780E+02 0.21333042055E+02 0.32879329677E+02 0.60095583479E+02
 0.10590735680E+03 0.16519940295E+03 0.22556788756E+03 0.27102233272E+03 0.16655764457E+03
 0.15626511190E+03 0.12892077413E+03 0.93443966247E+02 0.60095583479E+02 0.36234960573E+02
 0.23696600671E+02 0.18577730300E+02 0.15243888911E+02 0.12911729012E+02 0.11493700873E+02
 0.10707077615E+02 0.10309907461E+02 0.10138493253E+02 0.10072584823E+02 0.10040844139E+02
 0.10028649118E+02 0.10040844139E+02 0.10072584823E+02 0.10138493253E+02 0.10309907461E+02
 0.10707077615E+02 0.11493700873E+02 0.12911729012E+02 0.15243888911E+02 0.18577730300E+02
 0.23696600671E+02 0.36234960573E+02 0.60095583479E+02 0.93443966247E+02 0.12892077413E+03
 0.15626511190E+03 0.82903020885E+02 0.77717710571E+02 0.64208874683E+02 0.47439074791E+02
 0.32879329677E+02 0.23696600671E+02 0.19248376297E+02 0.16258368528E+02 0.13980829663E+02
 0.12529590373E+02 0.11770325868E+02 0.11493700873E+02 0.11522587887E+02 0.11718160919E+02
 0.11958182174E+02 0.12142462888E+02 0.12210223635E+02 0.12142462888E+02 0.11958182174E+02
 0.11718160919E+02 0.11522587887E+02 0.11493700873E+02 0.11770325868E+02 0.12529590373E+02
 0.13980829663E+02 0.16258368528E+02 0.19248376297E+02 0.23696600671E+02 0.32879329677E+02
 0.47439074791E+02 0.64208874683E+02 0.77717710571E+02 0.37938836367E+02 0.36013910052E+02
 0.31179499175E+02 0.25630986410E+02 0.21333042055E+02 0.18577730300E+02 0.16258368528E+02
 0.14387977268E+02 0.13152240368E+02 0.12564684960E+02 0.12529590373E+02 0.12911729012E+02
 0.13565035449E+02 0.14330358023E+02 0.15038689172E+02 0.15535701172E+02 0.15714077682E+02
 0.15535701172E+02 0.15038689172E+02 0.14330358023E+02 0.13565035449E+02 0.12911729012E+02
 0.12529590373E+02 0.12564684960E+02 0.13152240368E+02 0.14387977268E+02 0.16258368528E+02
 0.18577730300E+02 0.21333042055E+02 0.25630986410E+02 0.31179499175E+02 0.36013910052E+02
 0.21151739245E+02 0.20709475920E+02 0.19614863768E+02 0.18267903492E+02 0.16754297780E+02
 0.15243888911E+02 0.13980829663E+02 0.13152240368E+02 0.12865017811E+02 0.13152240368E+02
 0.13980829663E+02 0.15243888911E+02 0.16754297780E+02 0.18267903492E+02 0.19614863768E+02
 0.20709475920E+02 0.21151739245E+02 0.20709475920E+02 0.19614863768E+02 0.18267903492E+02
 0.16754297780E+02 0.15243888911E+02 0.13980829663E+02 0.13152240368E+02 0.12865017811E+02
 0.13152240368E+02 0.13980829663E+02 0.15243888911E+02 0.16754297780E+02 0.18267903492E+02
 0.19614863768E+02 0.20709475920E+02 0.15714077682E+02 0.15535701172E+02 0.15038689172E+02
 0.14330358023E+02 0.13565035449E+02 0.12911729012E+02 0.12529590373E+02 0.12564684960E+02
 0.13152240368E+02 0.14387977268E+02 0.16258368528E+02 0.18577730300E+02 0.21333042055E+02
 0.25630986410E+02 0.31179499175E+02 0.36013910052E+02 0.37938836367E+02 0.36013910052E+02
 0.31179499175E+02 0.25630986410E+02 0.21333042055E+02 0.18577730300E+02 0.16258368528E+02
 0.14387977268E+02 0.13152240368E+02 0.12564684960E+02 0.12529590373E+02 0.12911729012E+02
 0.13565035449E+02 0.14330358023E+02 0.15038689172E+02 0.15535701172E+02 0.12210223635E+02
 0.12142462888E+02 0.11958182174E+02 0.11718160919E+02 0.11522587887E+02 0.11493700873E+02
 0.11770325868E+02 0.12529590373E+02 0.13980829663E+02 0.16258368528E+02 0.19248376297E+02
 0.23696600671E+02 0.32879329677E+02 0.47439074791E+02 0.64208874683E+02 0.77717710571E+02
 0.82903020885E+02 0.77717710571E+02 0.64208874683E+02 0.47439074791E+02 0.32879329677E+02
 0.23696600671E+02 0.19248376297E+02 0.16258368528E+02 0.13980829663E+02 0.12529590373E+02
 0.11770325868E+02 0.11493700873E+02 0.11522587887E+02 0.11718160919E+02 0.11958182174E+02
 0.12142462888E+02 0.10028649118E+02 0.10040844139E+02 0.10072584823E+02 0.10138493253E+02
 0.10309907461E+02 0.10707077615E+02 0.11493700873E+02 0.12911729012E+02 0.15243888911E+02
 0.18577730300E+02 0.23696600671E+02 0.36234960573E+02 0.60095583479E+02 0.93443966247E+02
 0.12892077413E+03 0.15626511190E+03 0.16655764457E+03 0.15626511190E+03 0.12892077413E+03
 0.93443966247E+02 0.60095583479E+02 0.36234960573E+02 0.23696600671E+02 0.18577730300E+02
 0.15243888911E+02 0.12911729012E+02 0.11493700873E+02 0.10707077615E+02 0.10309907461E+02
 0.10138493253E+02 0.10072584823E+02 0.10040844139E+02 0.87773112071E+01 0.88389355940E+01
 0.89962591898E+01 0.92305546891E+01 0.96166281876E+01 0.10309907461E+02 0.11522587887E+02
 0.13565035449E+02 0.16754297780E+02 0.21333042055E+02 0.32879329677E+02 0.60095583479E+02
 0.10590735680E+03 0.16519940295E+03 0.22556788756E+03 0.27102233272E+03 0.28796021886E+03
 0.27102233272E+03 0.22556788756E+03 0.16519940295E+03 0.10590735680E+03 0.60095583479E+02
 0.32879329677E+02 0.21333042055E+02 0.16754297780E+02 0.13565035449E+02 0.11522587887E+02
 0.10309907461E+02 0.96166281876E+01 0.92305546891E+01 0.89962591898E+01 0.88389355940E+01
 0.81115636869E+01 0.82003319480E+01 0.84190146929E+01 0.87282578369E+01 0.92305546891E+01
 0.10138493253E+02 0.11718160919E+02 0.14330358023E+02 0.18267903492E+02 0.25630986410E+02
 0.47439074791E+02 0.93443966247E+02 0.16519940295E+03 0.25412524916E+03 0.34257045144E+03
 0.40839679762E+03 0.43281202002E+03 0.40839679762E+03 0.34257045144E+03 0.25412524916E+03
 0.16519940295E+03 0.93443966247E+02 0.47439074791E+02 0.25630986410E+02 0.18267903492E+02
 0.14330358023E+02 0.11718160919E+02 0.10138493253E+02 0.92305546891E+01 0.87282578369E+01
 0.84190146929E+01 0.82003319480E+01 0.77102208635E+01 0.78167431462E+01 0.80710392850E+01
 0.84190146929E+01 0.89962591898E+01 0.10072584823E+02 0.11958182174E+02 0.15038689172E+02
 0.19614863768E+02 0.31179499175E+02 0.64208874683E+02 0.12892077413E+03 0.22556788756E+03
 0.34257045144E+03 0.45760348399E+03 0.54279311789E+03 0.57433682682E+03 0.54279311789E+03
 0.45760348399E+03 0.34257045144E+03 0.22556788756E+03 0.12892077413E+03 0.64208874683E+02
 0.31179499175E+02 0.19614863768E+02 0.15038689172E+02 0.11958182174E+02 0.10072584823E+02
 0.89962591898E+01 0.84190146929E+01 0.80710392850E+01 0.78167431462E+01 0.74090223896E+01
 0.75307095112E+01 0.78167431462E+01 0.82003319480E+01 0.88389355940E+01 0.10040844139E+02
 0.12142462888E+02 0.15535701172E+02 0.20709475920E+02 0.36013910052E+02 0.77717710571E+02
 0.15626511190E+03 0.27102233272E+03 0.40839679762E+03 0.54279311789E+03 0.64215532073E+03
 0.67893318272E+03 0.64215532073E+03 0.54279311789E+03 0.40839679762E+03 0.27102233272E+03
 0.15626511190E+03 0.77717710571E+02 0.36013910052E+02 0.20709475920E+02 0.15535701172E+02
 0.12142462888E+02 0.10040844139E+02 0.88389355940E+01 0.82003319480E+01 0.78167431462E+01
 0.75307095112E+01 0.72804553534E+01 0.74090223896E+01 0.77102208635E+01 0.81115636869E+01
 0.87773112071E+01 0.10028649118E+02 0.12210223635E+02 0.15714077682E+02 0.21151739245E+02
 0.37938836367E+02 0.82903020885E+02 0.16655764457E+03 0.28796021886E+03 0.43281202002E+03
 0.57433682682E+03 0.67893318272E+03 0.71764774705E+03 0.67893318272E+03 0.57433682682E+03
 0.43281202002E+03 0.28796021886E+03 0.16655764457E+03 0.82903020885E+02 0.37938836367E+02
 0.21151739245E+02 0.15714077682E+02 0.12210223635E+02 0.10028649118E+02 0.87773112071E+01
 0.81115636869E+01 0.77102208635E+01 0.74090223896E+01 0.74090223896E+01 0.75307095112E+01
 0.78167431462E+01 0.82003319480E+01 0.88389355940E+01 0.10040844139E+02 0.12142462888E+02
 0.15535701172E+02 0.20709475920E+02 0.36013910052E+02 0.77717710571E+02 0.15626511190E+03
 0.27102233272E+03 0.40839679762E+03 0.54279311789E+03 0.64215532073E+03 0.67893318272E+03
 0.64215532073E+03 0.54279311789E+03 0.40839679762E+03 0.27102233272E+03 0.15626511190E+03
 0.77717710571E+02 0.36013910052E+02 0.20709475920E+02 0.15535701172E+02 0.12142462888E+02
 0.10040844139E+02 0.88389355940E+01 0.82003319480E+01 0.78167431462E+01 0.75307095112E+01
 0.77102208635E+01 0.78167431462E+01 0.80710392850E+01 0.84190146929E+01 0.89962591898E+01
 0.10072584823E+02 0.11958182174E+02 0.15038689172E+02 0.19614863768E+02 0.31179499175E+02
 0.64208874683E+02 0.12892077413E+03 0.22556788756E+03 0.34257045144E+03 0.45760348399E+03
 0.54279311789E+03 0.57433682682E+03 0.54279311789E+03 0.45760348399E+03 0.34257045144E+03
 0.22556788756E+03 0.12892077413E+03 0.64208874683E+02 0.31179499175E+02 0.19614863768E+02