   4   4   0   0
  0.1080677E+02  0.3509554E-09  0.3509554E-09  0.3509554E-09  0.5000000E-15
  1.000000000000000E-004
  CAR 
 unknown system                          
     31.70961926     -3.31254016  301      8.75423963      1.00000000
     -3.313  0.0000E+00  0.0000E+00
     -3.196  0.0000E+00  0.0000E+00
     -3.079  0.0000E+00  0.0000E+00
     -2.962 -0.1537E-30 -0.1794E-31
     -2.846 -0.1545E-26 -0.1804E-27
     -2.729 -0.7812E-23 -0.9122E-24
     -2.612 -0.1985E-19 -0.2318E-20
     -2.495 -0.2399E-16 -0.2803E-17
     -2.379 -0.1560E-13 -0.1823E-14
     -2.262 -0.4931E-11 -0.5775E-12
     -2.145 -0.7739E-09 -0.9092E-10
     -2.028 -0.5990E-07 -0.7084E-08
     -1.912 -0.2268E-05 -0.2718E-06
     -1.795 -0.4153E-04 -0.5120E-05
     -1.678 -0.3631E-03 -0.4750E-04
     -1.561 -0.1464E-02 -0.2185E-03
     -1.445 -0.1918E-02 -0.4424E-03
     -1.328  0.7128E-02  0.3898E-03
     -1.211  0.4305E-01  0.5416E-02
     -1.094  0.1102E+00  0.1829E-01
     -0.978  0.1712E+00  0.3827E-01
     -0.861  0.1694E+00  0.5805E-01
     -0.744  0.1289E+00  0.7310E-01
     -0.628  0.1684E+00  0.9276E-01
     -0.511  0.3261E+00  0.1308E+00
     -0.394  0.4167E+00  0.1795E+00
     -0.277  0.2877E+00  0.2131E+00
     -0.161  0.1170E+00  0.2267E+00
     -0.044  0.1791E+00  0.2476E+00
      0.073  0.3900E+00  0.2931E+00
      0.190  0.5007E+00  0.3516E+00
      0.306  0.4811E+00  0.4078E+00
      0.423  0.3891E+00  0.4532E+00
      0.540  0.2809E+00  0.4860E+00
      0.657  0.3880E+00  0.5313E+00
      0.773  0.6401E+00  0.6060E+00
      0.890  0.5404E+00  0.6691E+00
      1.007  0.2136E+00  0.6940E+00
      1.124  0.3064E+00  0.7298E+00
      1.240  0.6740E+00  0.8085E+00
      1.357  0.7733E+00  0.8987E+00
      1.474  0.6255E+00  0.9718E+00
      1.591  0.6180E+00  0.1044E+01
      1.707  0.8552E+00  0.1144E+01
      1.824  0.7733E+00  0.1234E+01
      1.941  0.3510E+00  0.1275E+01
      2.058  0.2898E+00  0.1309E+01
      2.174  0.7512E+00  0.1397E+01
      2.291  0.1295E+01  0.1548E+01
      2.408  0.1277E+01  0.1697E+01
      2.524  0.1013E+01  0.1815E+01
      2.641  0.9913E+00  0.1931E+01
      2.758  0.9394E+00  0.2040E+01
      2.875  0.9752E+00  0.2154E+01
      2.991  0.1637E+01  0.2345E+01
      3.108  0.2479E+01  0.2635E+01
      3.225  0.2856E+01  0.2968E+01
      3.342  0.3146E+01  0.3335E+01
      3.458  0.3695E+01  0.3767E+01
      3.575  0.4431E+01  0.4284E+01
      3.692  0.5001E+01  0.4868E+01
      3.809  0.4835E+01  0.5432E+01
      3.925  0.5560E+01  0.6082E+01
      4.042  0.7190E+01  0.6921E+01
      4.159  0.8144E+01  0.7872E+01
      4.276  0.8427E+01  0.8855E+01
      4.392  0.8060E+01  0.9796E+01
      4.509  0.7460E+01  0.1067E+02
      4.626  0.7352E+01  0.1153E+02
      4.743  0.7403E+01  0.1239E+02
      4.859  0.7719E+01  0.1329E+02
      4.976  0.9089E+01  0.1435E+02
      5.093  0.1087E+02  0.1562E+02
      5.210  0.1105E+02  0.1691E+02
      5.326  0.1144E+02  0.1825E+02
      5.443  0.1364E+02  0.1984E+02
      5.560  0.1526E+02  0.2162E+02
      5.676  0.1450E+02  0.2331E+02
      5.793  0.1177E+02  0.2469E+02
      5.910  0.9457E+01  0.2579E+02
      6.027  0.9458E+01  0.2690E+02
      6.143  0.1085E+02  0.2816E+02
      6.260  0.1207E+02  0.2957E+02
      6.377  0.1261E+02  0.3104E+02
      6.494  0.1183E+02  0.3242E+02
      6.610  0.1100E+02  0.3371E+02
      6.727  0.1138E+02  0.3504E+02
      6.844  0.1347E+02  0.3661E+02
      6.961  0.1691E+02  0.3858E+02
      7.077  0.1640E+02  0.4050E+02
      7.194  0.1040E+02  0.4171E+02
      7.311  0.4421E+01  0.4223E+02
      7.428  0.1300E+01  0.4238E+02
      7.544  0.2965E+00  0.4242E+02
      7.661  0.6941E+00  0.4250E+02
      7.778  0.1783E+01  0.4270E+02
      7.895  0.2083E+01  0.4295E+02
      8.011  0.1462E+01  0.4312E+02
      8.128  0.9372E+00  0.4323E+02
      8.245  0.9209E+00  0.4333E+02
      8.362  0.1363E+01  0.4349E+02
      8.478  0.1642E+01  0.4369E+02
      8.595  0.1334E+01  0.4384E+02
      8.712  0.9924E+00  0.4396E+02
      8.828  0.1044E+01  0.4408E+02
      8.945  0.1032E+01  0.4420E+02
      9.062  0.7239E+00  0.4428E+02
      9.179  0.5888E+00  0.4435E+02
      9.295  0.9991E+00  0.4447E+02
      9.412  0.1456E+01  0.4464E+02
      9.529  0.1529E+01  0.4482E+02
      9.646  0.1621E+01  0.4501E+02
      9.762  0.1561E+01  0.4519E+02
      9.879  0.8802E+00  0.4529E+02
      9.996  0.3591E+00  0.4533E+02
     10.113  0.5379E+00  0.4540E+02
     10.229  0.8361E+00  0.4549E+02
     10.346  0.6961E+00  0.4558E+02
     10.463  0.6434E+00  0.4565E+02
     10.580  0.1058E+01  0.4577E+02
     10.696  0.1412E+01  0.4594E+02
     10.813  0.1469E+01  0.4611E+02
     10.930  0.1248E+01  0.4626E+02
     11.047  0.8085E+00  0.4635E+02
     11.163  0.6354E+00  0.4643E+02
     11.280  0.1099E+01  0.4655E+02
     11.397  0.1090E+01  0.4668E+02
     11.514  0.4260E+00  0.4673E+02
     11.630  0.2527E+00  0.4676E+02
     11.747  0.3748E+00  0.4680E+02
     11.864  0.4893E+00  0.4686E+02
     11.980  0.8512E+00  0.4696E+02
     12.097  0.1022E+01  0.4708E+02
     12.214  0.6227E+00  0.4715E+02
     12.331  0.4952E+00  0.4721E+02
     12.447  0.1022E+01  0.4733E+02
     12.564  0.1115E+01  0.4746E+02
     12.681  0.4894E+00  0.4752E+02
     12.798  0.9117E-01  0.4753E+02
     12.914  0.8177E-01  0.4754E+02
     13.031  0.4008E+00  0.4758E+02
     13.148  0.1240E+01  0.4773E+02
     13.265  0.1816E+01  0.4794E+02
     13.381  0.1283E+01  0.4809E+02
     13.498  0.6719E+00  0.4817E+02
     13.615  0.6259E+00  0.4824E+02
     13.732  0.7457E+00  0.4833E+02
     13.848  0.1138E+01  0.4846E+02
     13.965  0.1448E+01  0.4863E+02
     14.082  0.1206E+01  0.4877E+02
     14.199  0.1064E+01  0.4890E+02
     14.315  0.1294E+01  0.4905E+02
     14.432  0.1474E+01  0.4922E+02
     14.549  0.1184E+01  0.4936E+02
     14.666  0.5429E+00  0.4942E+02
     14.782  0.5352E+00  0.4948E+02
     14.899  0.1362E+01  0.4964E+02
     15.016  0.1794E+01  0.4985E+02
     15.132  0.1069E+01  0.4998E+02
     15.249  0.5808E+00  0.5004E+02
     15.366  0.1073E+01  0.5017E+02
     15.483  0.1198E+01  0.5031E+02
     15.599  0.5147E+00  0.5037E+02
     15.716  0.3338E+00  0.5041E+02
     15.833  0.5884E+00  0.5048E+02
     15.950  0.6725E+00  0.5056E+02
     16.066  0.8396E+00  0.5065E+02
     16.183  0.1056E+01  0.5078E+02
     16.300  0.1431E+01  0.5094E+02
     16.417  0.1534E+01  0.5112E+02
     16.533  0.1093E+01  0.5125E+02
     16.650  0.9884E+00  0.5137E+02
     16.767  0.1198E+01  0.5151E+02
     16.884  0.1402E+01  0.5167E+02
     17.000  0.1274E+01  0.5182E+02
     17.117  0.6675E+00  0.5190E+02
     17.234  0.5307E+00  0.5196E+02
     17.351  0.9104E+00  0.5206E+02
     17.467  0.9836E+00  0.5218E+02
     17.584  0.8188E+00  0.5227E+02
     17.701  0.1166E+01  0.5241E+02
     17.817  0.1954E+01  0.5264E+02
     17.934  0.2189E+01  0.5289E+02
     18.051  0.1712E+01  0.5309E+02
     18.168  0.1205E+01  0.5323E+02
     18.284  0.1095E+01  0.5336E+02
     18.401  0.1313E+01  0.5352E+02
     18.518  0.1612E+01  0.5370E+02
     18.635  0.2075E+01  0.5395E+02
     18.751  0.1986E+01  0.5418E+02
     18.868  0.1479E+01  0.5435E+02
     18.985  0.1238E+01  0.5450E+02
     19.102  0.7676E+00  0.5458E+02
     19.218  0.5177E+00  0.5465E+02
     19.335  0.8325E+00  0.5474E+02
     19.452  0.1272E+01  0.5489E+02
     19.569  0.1677E+01  0.5509E+02
     19.685  0.1779E+01  0.5529E+02
     19.802  0.1453E+01  0.5546E+02
     19.919  0.1106E+01  0.5559E+02
     20.036  0.1025E+01  0.5571E+02
     20.152  0.1105E+01  0.5584E+02
     20.269  0.1606E+01  0.5603E+02
     20.386  0.2011E+01  0.5626E+02
     20.503  0.1748E+01  0.5647E+02
     20.619  0.1657E+01  0.5666E+02
     20.736  0.2330E+01  0.5693E+02
     20.853  0.2173E+01  0.5719E+02
     20.969  0.8901E+00  0.5729E+02
     21.086  0.2680E+00  0.5732E+02
     21.203  0.6210E+00  0.5740E+02
     21.320  0.1185E+01  0.5753E+02
     21.436  0.1617E+01  0.5772E+02
     21.553  0.1944E+01  0.5795E+02
     21.670  0.1836E+01  0.5816E+02
     21.787  0.1409E+01  0.5833E+02
     21.903  0.9378E+00  0.5844E+02
     22.020  0.8601E+00  0.5854E+02
     22.137  0.1099E+01  0.5867E+02
     22.254  0.9489E+00  0.5878E+02
     22.370  0.7100E+00  0.5886E+02
     22.487  0.8654E+00  0.5896E+02
     22.604  0.8731E+00  0.5906E+02
     22.721  0.5451E+00  0.5913E+02
     22.837  0.3195E+00  0.5916E+02
     22.954  0.1632E+00  0.5918E+02
     23.071  0.1841E+00  0.5920E+02
     23.188  0.4642E+00  0.5926E+02
     23.304  0.4433E+00  0.5931E+02
     23.421  0.1199E+00  0.5932E+02
     23.538 -0.2320E-01  0.5932E+02
     23.655 -0.1626E-01  0.5932E+02
     23.771 -0.1284E-01  0.5932E+02
     23.888 -0.2029E-01  0.5932E+02
     24.005  0.5985E-01  0.5932E+02
     24.121  0.3359E+00  0.5936E+02
     24.238  0.6332E+00  0.5944E+02
     24.355  0.5474E+00  0.5950E+02
     24.472  0.1723E+00  0.5952E+02
     24.588  0.6748E-01  0.5953E+02
     24.705  0.2245E+00  0.5955E+02
     24.822  0.2127E+00  0.5958E+02
     24.939  0.4315E-01  0.5958E+02
     25.055 -0.2772E-01  0.5958E+02
     25.172  0.7611E-01  0.5959E+02
     25.289  0.3205E+00  0.5963E+02
     25.406  0.3936E+00  0.5967E+02
     25.522  0.1815E+00  0.5969E+02
     25.639  0.7990E-02  0.5970E+02
     25.756 -0.2441E-01  0.5969E+02
     25.873 -0.3074E-01  0.5969E+02
     25.989  0.4252E-01  0.5969E+02
     26.106  0.3427E+00  0.5973E+02
     26.223  0.5287E+00  0.5980E+02
     26.340  0.2689E+00  0.5983E+02
     26.456  0.1076E-01  0.5983E+02
     26.573 -0.2426E-01  0.5983E+02
     26.690 -0.9986E-02  0.5982E+02
     26.807 -0.1364E-01  0.5982E+02
     26.923  0.2002E-01  0.5982E+02
     27.040  0.1686E+00  0.5984E+02
     27.157  0.2648E+00  0.5988E+02
     27.273  0.1373E+00  0.5989E+02
     27.390  0.6411E-02  0.5989E+02
     27.507 -0.1209E-01  0.5989E+02
     27.624 -0.3906E-02  0.5989E+02
     27.740 -0.6855E-02  0.5989E+02
     27.857 -0.1244E-01  0.5989E+02
     27.974  0.5074E-01  0.5989E+02
     28.091  0.2146E+00  0.5992E+02
     28.207  0.2475E+00  0.5995E+02
     28.324  0.8936E-01  0.5996E+02
     28.441 -0.7020E-02  0.5996E+02
     28.558 -0.9309E-02  0.5996E+02
     28.674 -0.1674E-02  0.5996E+02
     28.791 -0.1203E-03  0.5996E+02
     28.908 -0.3999E-05  0.5996E+02
     29.025 -0.2700E-05  0.5996E+02
     29.141 -0.8021E-04  0.5996E+02
     29.258 -0.1116E-02  0.5996E+02
     29.375 -0.6205E-02  0.5996E+02
     29.492 -0.4681E-02  0.5995E+02
     29.608  0.5957E-01  0.5996E+02
     29.725  0.1650E+00  0.5998E+02
     29.842  0.1430E+00  0.6000E+02
     29.959  0.3383E-01  0.6000E+02
     30.075 -0.8282E-02  0.6000E+02
     30.192 -0.4389E-02  0.6000E+02
     30.309 -0.6037E-03  0.6000E+02
     30.425 -0.3504E-04  0.6000E+02
     30.542 -0.9460E-06  0.6000E+02
     30.659 -0.1232E-07  0.6000E+02
     30.776 -0.7875E-10  0.6000E+02
     30.892 -0.2493E-12  0.6000E+02
     31.009 -0.4175E-15  0.6000E+02
     31.126  0.0000E+00  0.6000E+02
     31.243  0.0000E+00  0.6000E+02
     31.359  0.0000E+00  0.6000E+02
     31.476  0.0000E+00  0.6000E+02
     31.593  0.0000E+00  0.6000E+02
     31.710  0.0000E+00  0.6000E+02
