<?xml version="1.0" encoding="ISO-8859-1"?>
<modeling>
 <generator>
  <i name="program" type="string">vasp </i>
  <i name="version" type="string">6.2.0  </i>
  <i name="subversion" type="string">18Jan21 (build Mar 17 2021 09:06:54) complex                          serial </i>
  <i name="platform" type="string">LinuxIFC </i>
  <i name="date" type="string">2021 08 03 </i>
  <i name="time" type="string">10:15:21 </i>
 </generator>
 <incar>
  <i type="string" name="PREC">normal</i>
  <i type="int" name="ICHARG">     1</i>
  <i type="int" name="IBRION">     1</i>
  <i name="EDIFF">      0.00000100</i>
  <i type="int" name="NSW">     0</i>
  <i type="int" name="ISIF">     2</i>
  <i name="ENCUT">    320.00000000</i>
  <i type="int" name="NBANDS">    30</i>
  <i type="int" name="ISMEAR">     1</i>
  <i name="SIGMA">      0.20000000</i>
  <i type="logical" name="LCHARG"> T  </i>
  <i type="int" name="KPAR">     1</i>
  <i type="int" name="NCORE">     1</i>
  <i type="string" name="GGA">PE</i>
 </incar>
 <primitive_cell>
  <structure name="primitive_cell" >
   <crystal>
    <varray name="basis" >
     <v>       1.75477696      -1.75477696       0.00000000 </v>
     <v>       1.75477696       0.00000000       1.75477696 </v>
     <v>       0.00000000      -1.75477696       1.75477696 </v>
    </varray>
    <i name="volume">     10.80676640 </i>
    <varray name="rec_basis" >
     <v>       0.28493650      -0.28493650      -0.28493650 </v>
     <v>       0.28493650       0.28493650       0.28493650 </v>
     <v>      -0.28493650      -0.28493650       0.28493650 </v>
    </varray>
   </crystal>
   <varray name="positions" >
    <v>       0.00000000       0.00000000       0.00000000 </v>
   </varray>
  </structure>
  <varray name="primitive_index" >
   <v type="int" >        1 </v>
  </varray>
 </primitive_cell>
 <kpoints>
  <generation param="Monkhorst-Pack">
   <v type="int" name="divisions">       9        9        9 </v>
   <v name="usershift">      0.00000000       0.00000000       0.00000000 </v>
   <v name="genvec1">      0.11111111       0.00000000       0.00000000 </v>
   <v name="genvec2">      0.00000000       0.11111111       0.00000000 </v>
   <v name="genvec3">      0.00000000       0.00000000       0.11111111 </v>
   <v name="shift">      0.00000000       0.00000000       0.00000000 </v>
  </generation>
  <varray name="kpointlist" >
   <v>       0.00000000       0.00000000       0.00000000 </v>
   <v>       0.11111111       0.00000000       0.00000000 </v>
   <v>       0.22222222       0.00000000       0.00000000 </v>
   <v>       0.33333333       0.00000000       0.00000000 </v>
   <v>       0.44444444       0.00000000       0.00000000 </v>
   <v>       0.11111111       0.11111111       0.00000000 </v>
   <v>       0.22222222       0.11111111       0.00000000 </v>
   <v>       0.33333333       0.11111111       0.00000000 </v>
   <v>       0.44444444       0.11111111       0.00000000 </v>
   <v>       0.22222222       0.22222222       0.00000000 </v>
   <v>       0.33333333       0.22222222       0.00000000 </v>
   <v>       0.44444444       0.22222222       0.00000000 </v>
   <v>       0.33333333       0.33333333       0.00000000 </v>
   <v>       0.44444444       0.33333333       0.00000000 </v>
   <v>       0.44444444       0.44444444       0.00000000 </v>
   <v>       0.11111111       0.11111111       0.11111111 </v>
   <v>       0.22222222       0.11111111       0.11111111 </v>
   <v>       0.33333333       0.11111111       0.11111111 </v>
   <v>       0.44444444       0.11111111       0.11111111 </v>
   <v>       0.22222222       0.22222222       0.11111111 </v>
   <v>       0.33333333       0.22222222       0.11111111 </v>
   <v>       0.44444444       0.22222222       0.11111111 </v>
   <v>       0.33333333       0.33333333       0.11111111 </v>
   <v>       0.44444444       0.33333333       0.11111111 </v>
   <v>       0.44444444       0.44444444       0.11111111 </v>
   <v>       0.22222222       0.22222222       0.22222222 </v>
   <v>       0.33333333       0.22222222       0.22222222 </v>
   <v>       0.44444444       0.22222222       0.22222222 </v>
   <v>       0.33333333       0.33333333       0.22222222 </v>
   <v>       0.44444444       0.33333333       0.22222222 </v>
   <v>       0.44444444       0.44444444       0.22222222 </v>
   <v>       0.33333333       0.33333333       0.33333333 </v>
   <v>       0.44444444       0.33333333       0.33333333 </v>
   <v>       0.44444444       0.44444444       0.33333333 </v>
   <v>       0.44444444       0.44444444       0.44444444 </v>
  </varray>
  <varray name="weights" >
   <v>       0.00137174 </v>
   <v>       0.00823045 </v>
   <v>       0.00823045 </v>
   <v>       0.00823045 </v>
   <v>       0.00823045 </v>
   <v>       0.01646091 </v>
   <v>       0.03292181 </v>
   <v>       0.03292181 </v>
   <v>       0.03292181 </v>
   <v>       0.01646091 </v>
   <v>       0.03292181 </v>
   <v>       0.03292181 </v>
   <v>       0.01646091 </v>
   <v>       0.03292181 </v>
   <v>       0.01646091 </v>
   <v>       0.01097394 </v>
   <v>       0.03292181 </v>
   <v>       0.03292181 </v>
   <v>       0.03292181 </v>
   <v>       0.03292181 </v>
   <v>       0.06584362 </v>
   <v>       0.06584362 </v>
   <v>       0.03292181 </v>
   <v>       0.06584362 </v>
   <v>       0.03292181 </v>
   <v>       0.01097394 </v>
   <v>       0.03292181 </v>
   <v>       0.03292181 </v>
   <v>       0.03292181 </v>
   <v>       0.06584362 </v>
   <v>       0.03292181 </v>
   <v>       0.01097394 </v>
   <v>       0.03292181 </v>
   <v>       0.03292181 </v>
   <v>       0.01097394 </v>
  </varray>
 </kpoints>
 <parameters>
  <separator name="general" >
   <i type="string" name="SYSTEM">unknown system</i>
   <i type="logical" name="LCOMPAT"> F  </i>
  </separator>
  <separator name="electronic" >
   <i type="string" name="PREC">normal</i>
   <i name="ENMAX">    320.00000000</i>
   <i name="ENAUG">    586.98000000</i>
   <i name="EDIFF">      0.00000100</i>
   <i type="int" name="IALGO">    38</i>
   <i type="int" name="IWAVPR">     0</i>
   <i type="int" name="NBANDS">    30</i>
   <i type="int" name="NBANDSLOW">    -1</i>
   <i type="int" name="NBANDSHIGH">    -1</i>
   <i name="NELECT">     44.00000000</i>
   <i type="int" name="TURBO">     0</i>
   <i type="int" name="IRESTART">     0</i>
   <i type="int" name="NREBOOT">     0</i>
   <i type="int" name="NMIN">     0</i>
   <i name="EREF">      0.00000000</i>
   <separator name="electronic smearing" >
    <i type="int" name="ISMEAR">     1</i>
    <i name="SIGMA">      0.20000000</i>
    <i name="KSPACING">      0.50000000</i>
    <i type="logical" name="KGAMMA"> T  </i>
    <i type="logical" name="KBLOWUP"> T  </i>
   </separator>
   <separator name="electronic projectors" >
    <i type="logical" name="LREAL"> F  </i>
    <v name="ROPT">      0.00000000</v>
    <i type="int" name="LMAXPAW">  -100</i>
    <i type="int" name="LMAXMIX">     2</i>
    <i type="logical" name="NLSPLINE"> F  </i>
   </separator>
   <separator name="electronic startup" >
    <i type="int" name="ISTART">     1</i>
    <i type="int" name="ICHARG">     1</i>
    <i type="int" name="INIWAV">     1</i>
   </separator>
   <separator name="electronic spin" >
    <i type="int" name="ISPIN">     1</i>
    <i type="logical" name="LNONCOLLINEAR"> F  </i>
    <v name="MAGMOM">      1.00000000      1.00000000      1.00000000      1.00000000</v>
    <i name="NUPDOWN">     -1.00000000</i>
    <i type="logical" name="LSORBIT"> F  </i>
    <v name="SAXIS">      0.00000000      0.00000000      1.00000000</v>
    <i type="logical" name="LSPIRAL"> F  </i>
    <v name="QSPIRAL">      0.00000000      0.00000000      0.00000000</v>
    <i type="logical" name="LZEROZ"> F  </i>
   </separator>
   <separator name="electronic exchange-correlation" >
    <i type="logical" name="LASPH"> F  </i>
    <i type="logical" name="LMETAGGA"> F  </i>
   </separator>
   <separator name="electronic convergence" >
    <i type="int" name="NELM">    60</i>
    <i type="int" name="NELMDL">     0</i>
    <i type="int" name="NELMIN">     2</i>
    <i name="ENINI">    320.00000000</i>
    <separator name="electronic convergence detail" >
     <i type="logical" name="LDIAG"> T  </i>
     <i type="logical" name="LSUBROT"> F  </i>
     <i name="WEIMIN">      0.00000000</i>
     <i name="EBREAK">      0.00000001</i>
     <i name="DEPER">      0.30000000</i>
     <i type="int" name="NRMM">     4</i>
     <i name="TIME">      0.40000000</i>
    </separator>
   </separator>
   <separator name="electronic mixer" >
    <i name="AMIX">      0.40000000</i>
    <i name="BMIX">      1.00000000</i>
    <i name="AMIN">      0.10000000</i>
    <i name="AMIX_MAG">      1.60000000</i>
    <i name="BMIX_MAG">      1.00000000</i>
    <separator name="electronic mixer details" >
     <i type="int" name="IMIX">     4</i>
     <i type="logical" name="MIXFIRST"> F  </i>
     <i type="int" name="MAXMIX">   -45</i>
     <i name="WC">    100.00000000</i>
     <i type="int" name="INIMIX">     1</i>
     <i type="int" name="MIXPRE">     1</i>
     <i type="int" name="MREMOVE">     5</i>
    </separator>
   </separator>
   <separator name="electronic dipolcorrection" >
    <i type="logical" name="LDIPOL"> F  </i>
    <i type="logical" name="LMONO"> F  </i>
    <i type="int" name="IDIPOL">     0</i>
    <i name="EPSILON">      1.00000000</i>
    <v name="DIPOL">   -100.00000000   -100.00000000   -100.00000000</v>
    <i name="EFIELD">      0.00000000</i>
   </separator>
  </separator>
  <separator name="grids" >
   <i type="int" name="NGX">    16</i>
   <i type="int" name="NGY">    16</i>
   <i type="int" name="NGZ">    16</i>
   <i type="int" name="NGXF">    32</i>
   <i type="int" name="NGYF">    32</i>
   <i type="int" name="NGZF">    32</i>
   <i type="logical" name="ADDGRID"> F  </i>
  </separator>
  <separator name="ionic" >
   <i type="int" name="NSW">     0</i>
   <i type="int" name="IBRION">    -1</i>
   <i type="int" name="MDALGO">     0</i>
   <i type="int" name="ISIF">     2</i>
   <i name="PSTRESS">      0.00000000</i>
   <i name="EDIFFG">      0.00001000</i>
   <i type="int" name="NFREE">     0</i>
   <i name="POTIM">      0.50000000</i>
   <i name="SMASS">     -3.00000000</i>
   <i name="SCALEE">      1.00000000</i>
  </separator>
  <separator name="ionic md" >
   <i name="TEBEG">      0.00010000</i>
   <i name="TEEND">      0.00010000</i>
   <i type="int" name="NBLOCK">     1</i>
   <i type="int" name="KBLOCK">     1</i>
   <i type="int" name="NPACO">   256</i>
   <i name="APACO">     16.00000000</i>
  </separator>
  <separator name="symmetry" >
   <i type="int" name="ISYM">     2</i>
   <i name="SYMPREC">      0.00001000</i>
  </separator>
  <separator name="dos" >
   <i type="int" name="LORBIT">     0</i>
   <v name="RWIGS">     -1.00000000</v>
   <i type="int" name="NEDOS">   301</i>
   <i name="EMIN">     10.00000000</i>
   <i name="EMAX">    -10.00000000</i>
   <i name="EFERMI">      0.00000000</i>
  </separator>
  <separator name="writing" >
   <i type="int" name="NWRITE">     2</i>
   <i type="logical" name="LWAVE"> T  </i>
   <i type="logical" name="LDOWNSAMPLE"> F  </i>
   <i type="logical" name="LCHARG"> T  </i>
   <i type="logical" name="LPARD"> F  </i>
   <i type="logical" name="LVTOT"> F  </i>
   <i type="logical" name="LVHAR"> F  </i>
   <i type="logical" name="LELF"> F  </i>
   <i type="logical" name="LOPTICS"> F  </i>
   <v name="STM">      0.00000000      0.00000000      0.00000000      0.00000000      0.00000000      0.00000000      0.00000000</v>
  </separator>
  <separator name="performance" >
   <i type="int" name="NPAR">     1</i>
   <i type="int" name="NSIM">     4</i>
   <i type="int" name="NBLK">    -1</i>
   <i type="logical" name="LPLANE"> T  </i>
   <i type="logical" name="LSCALAPACK"> F  </i>
   <i type="logical" name="LSCAAWARE"> F  </i>
   <i type="logical" name="LSCALU"> F  </i>
   <i type="logical" name="LASYNC"> F  </i>
   <i type="logical" name="LORBITALREAL"> F  </i>
  </separator>
  <separator name="miscellaneous" >
   <i type="int" name="IDIOT">     3</i>
   <i type="int" name="PHON_NSTRUCT">    -1</i>
   <i type="logical" name="LMUSIC"> F  </i>
   <v name="POMASS">     63.54600000</v>
   <v name="DARWINR">      0.00000000</v>
   <v name="DARWINV">      1.00000000</v>
   <i type="logical" name="LCORR"> T  </i>
  </separator>
  <i type="logical" name="GGA_COMPAT"> T  </i>
  <i type="logical" name="LBERRY"> F  </i>
  <i type="int" name="ICORELEVEL">     0</i>
  <i type="logical" name="LDAU"> F  </i>
  <i type="int" name="I_CONSTRAINED_M">     0</i>
  <separator name="electronic exchange-correlation" >
   <i type="string" name="GGA">PE</i>
   <i type="int" name="VOSKOWN">     0</i>
   <i type="logical" name="LHFCALC"> F  </i>
   <i type="string" name="PRECFOCK"></i>
   <i type="logical" name="LSYMGRAD"> F  </i>
   <i type="logical" name="LHFONE"> F  </i>
   <i type="logical" name="LRHFCALC"> F  </i>
   <i type="logical" name="LTHOMAS"> F  </i>
   <i type="logical" name="LMODELHF"> F  </i>
   <i type="logical" name="LFOCKACE"> F  </i>
   <i name="ENCUT4O">     -1.00000000</i>
   <i type="int" name="EXXOEP">     0</i>
   <i type="int" name="FOURORBIT">     0</i>
   <i name="AEXX">      0.00000000</i>
   <i name="HFALPHA">      0.00000000</i>
   <i name="MCALPHA">      0.00000000</i>
   <i name="ALDAX">      1.00000000</i>
   <i name="AGGAX">      1.00000000</i>
   <i name="ALDAC">      1.00000000</i>
   <i name="AGGAC">      1.00000000</i>
   <i type="int" name="NKREDX">     1</i>
   <i type="int" name="NKREDY">     1</i>
   <i type="int" name="NKREDZ">     1</i>
   <i type="logical" name="SHIFTRED"> F  </i>
   <i type="logical" name="ODDONLY"> F  </i>
   <i type="logical" name="EVENONLY"> F  </i>
   <i type="int" name="LMAXFOCK">     0</i>
   <i type="int" name="NMAXFOCKAE">     0</i>
   <i type="logical" name="LFOCKAEDFT"> F  </i>
   <i name="HFSCREEN">      0.00000000</i>
   <i name="HFSCREENC">      0.00000000</i>
   <i type="int" name="NBANDSGWLOW">     0</i>
  </separator>
  <separator name="vdW DFT" >
   <i type="logical" name="LUSE_VDW"> F  </i>
   <i name="Zab_VDW">     -0.84910000</i>
   <i name="PARAM1">      0.12340000</i>
   <i name="PARAM2">      1.00000000</i>
   <i name="PARAM3">      0.00000000</i>
  </separator>
  <separator name="model GW" >
   <i type="int" name="MODEL_GW">     0</i>
   <i name="MODEL_EPS0">      6.48405984</i>
   <i name="MODEL_ALPHA">      1.00000000</i>
  </separator>
  <separator name="linear response parameters" >
   <i type="logical" name="LEPSILON"> F  </i>
   <i type="logical" name="LRPA"> F  </i>
   <i type="logical" name="LNABLA"> F  </i>
   <i type="logical" name="LVEL"> F  </i>
   <i type="int" name="KINTER">     0</i>
   <i name="CSHIFT">      0.10000000</i>
   <i name="OMEGAMAX">     -1.00000000</i>
   <i name="DEG_THRESHOLD">      0.00200000</i>
   <i name="RTIME">     -0.10000000</i>
   <i name="WPLASMAI">      0.00000000</i>
   <v name="DFIELD">      0.00000000      0.00000000      0.00000000</v>
   <v name="WPLASMA">      0.00000000      0.00000000      0.00000000      0.00000000      0.00000000      0.00000000      0.00000000      0.00000000      0.00000000</v>
  </separator>
  <separator name="orbital magnetization" >
   <i type="logical" name="NUCIND"> F  </i>
   <v name="MAGPOS">      0.00000000      0.00000000      0.00000000</v>
   <i type="logical" name="LNICSALL"> T  </i>
   <i type="logical" name="ORBITALMAG"> F  </i>
   <i type="logical" name="LMAGBLOCH"> F  </i>
   <i type="logical" name="LCHIMAG"> F  </i>
   <i type="logical" name="LGAUGE"> T  </i>
   <i type="int" name="MAGATOM">     0</i>
   <v name="MAGDIPOL">      0.00000000      0.00000000      0.00000000</v>
   <v name="AVECCONST">      0.00000000      0.00000000      0.00000000</v>
  </separator>
  <separator name="response functions" >
   <i type="logical" name="LFINITE_TEMPERATURE"> F  </i>
   <i type="logical" name="LADDER"> F  </i>
   <i type="logical" name="LRPAFORCE"> F  </i>
   <i type="logical" name="LFXC"> F  </i>
   <i type="logical" name="LHARTREE"> T  </i>
   <i type="int" name="IBSE">     0</i>
   <v type="int" name="KPOINT">    -1     0     0     0</v>
   <i type="logical" name="LTCTC"> F  </i>
   <i type="logical" name="LTCTE"> F  </i>
   <i type="logical" name="LTETE"> F  </i>
   <i type="logical" name="LTRIPLET"> F  </i>
   <i type="logical" name="LFXCEPS"> F  </i>
   <i type="logical" name="LFXHEG"> F  </i>
   <i type="int" name="NATURALO">     2</i>
   <i type="logical" name="LHOLEGF"> F  </i>
   <i type="logical" name="L2ORDER"> F  </i>
   <i type="logical" name="LDMP1"> F  </i>
   <i type="logical" name="LMP2LT"> F  </i>
   <i type="logical" name="LSMP2LT"> F  </i>
   <i type="logical" name="LGWLF"> F  </i>
   <i name="ENCUTGW">     -2.00000000</i>
   <i name="ENCUTGWSOFT">     -2.00000000</i>
   <i name="ENCUTLF">     -1.00000000</i>
   <i type="logical" name="LESF_SPLINES"> F  </i>
   <i type="int" name="LMAXMP2">    -1</i>
   <i name="SCISSOR">      0.00000000</i>
   <i type="int" name="NOMEGA">     0</i>
   <i type="int" name="NOMEGAR">     0</i>
   <i type="int" name="NBANDSGW">    -1</i>
   <i type="int" name="NBANDSO">    -1</i>
   <i type="int" name="NBANDSV">    -1</i>
   <i type="int" name="NELM">     1</i>
   <i type="int" name="NELMHF">     1</i>
   <i type="int" name="DIM">     3</i>
   <i type="int" name="IESPILON">     4</i>
   <i type="int" name="ANTIRES">     0</i>
   <i name="OMEGAMAX">    -30.00000000</i>
   <i name="OMEGAMIN">    -30.00000000</i>
   <i name="OMEGATL">   -200.00000000</i>
   <i type="int" name="OMEGAGRID">     0</i>
   <i name="CSHIFT">     -0.10000000</i>
   <i type="logical" name="LSELFENERGY"> F  </i>
   <i type="logical" name="LSPECTRAL"> F  </i>
   <i type="logical" name="LSPECTRALGW"> F  </i>
   <i type="logical" name="LSINGLES"> F  </i>
   <i type="logical" name="LFERMIGW"> F  </i>
   <i type="logical" name="ODDONLYGW"> F  </i>
   <i type="logical" name="EVENONLYGW"> F  </i>
   <i type="int" name="NKREDLFX">     1</i>
   <i type="int" name="NKREDLFY">     1</i>
   <i type="int" name="NKREDLFZ">     1</i>
   <i type="int" name="MAXMEM">  2800</i>
   <i type="int" name="TELESCOPE">     0</i>
   <i type="int" name="NTAUPAR">    -1</i>
   <i type="int" name="NOMEGAPAR">    -1</i>
   <i name="DAMP_NEWTON">      0.80000001</i>
   <i name="LAMBDA">      1.00000000</i>
  </separator>
  <separator name="External order field" >
   <i name="OFIELD_KAPPA">      0.00000000</i>
   <v name="OFIELD_K">      0.00000000      0.00000000      0.00000000</v>
   <i name="OFIELD_Q6_NEAR">      0.00000000</i>
   <i name="OFIELD_Q6_FAR">      0.00000000</i>
   <i name="OFIELD_A">      0.00000000</i>
  </separator>
 </parameters>
 <atominfo>
  <atoms>       4 </atoms>
  <types>       1 </types>
  <array name="atoms" >
   <dimension dim="1">ion</dimension>
   <field type="string">element</field>
   <field type="int">atomtype</field>
   <set>
    <rc><c>Cu</c><c>   1</c></rc>
    <rc><c>Cu</c><c>   1</c></rc>
    <rc><c>Cu</c><c>   1</c></rc>
    <rc><c>Cu</c><c>   1</c></rc>
   </set>
  </array>
  <array name="atomtypes" >
   <dimension dim="1">type</dimension>
   <field type="int">atomspertype</field>
   <field type="string">element</field>
   <field>mass</field>
   <field>valence</field>
   <field type="string">pseudopotential</field>
   <set>
    <rc><c>   4</c><c>Cu</c><c>     63.54600000</c><c>     11.00000000</c><c>  PAW_PBE Cu 22Jun2005                  </c></rc>
   </set>
  </array>
 </atominfo>
 <structure name="initialpos" >
  <crystal>
   <varray name="basis" >
    <v>       3.50955391       0.00000000       0.00000000 </v>
    <v>       0.00000000       3.50955391       0.00000000 </v>
    <v>       0.00000000       0.00000000       3.50955391 </v>
   </varray>
   <i name="volume">     43.22706559 </i>
   <varray name="rec_basis" >
    <v>       0.28493650       0.00000000       0.00000000 </v>
    <v>       0.00000000       0.28493650       0.00000000 </v>
    <v>       0.00000000       0.00000000       0.28493650 </v>
   </varray>
  </crystal>
  <varray name="positions" >
   <v>       0.00000000       0.00000000       0.00000000 </v>
   <v>       0.50000000       0.50000000       0.00000000 </v>
   <v>       0.50000000       0.00000000       0.50000000 </v>
   <v>       0.00000000       0.50000000       0.50000000 </v>
  </varray>
 </structure>
 <calculation>
  <scstep>
   <time name="dav">    0.46    0.48</time>
   <time name="total">    0.51    0.53</time>
   <energy>
    <i name="alphaZ">    270.69264205 </i>
    <i name="ewald">  -4552.45645888 </i>
    <i name="hartreedc">  -1281.08061977 </i>
    <i name="XCdc">    179.51648027 </i>
    <i name="pawpsdc">   5406.32876927 </i>
    <i name="pawaedc">  -5840.34282396 </i>
    <i name="eentropy">      0.00020528 </i>
    <i name="bandstr">    238.87522516 </i>
    <i name="atom">   5563.77610493 </i>
    <i name="e_fr_energy">    -14.69047565 </i>
    <i name="e_wo_entrp">    -14.69068093 </i>
    <i name="e_0_energy">    -14.69054408 </i>
   </energy>
  </scstep>
  <scstep>
   <time name="dav">    0.41    0.41</time>
   <time name="total">    0.45    0.45</time>
   <energy>
    <i name="e_fr_energy">    -14.68845900 </i>
    <i name="e_wo_entrp">    -14.68868288 </i>
    <i name="e_0_energy">    -14.68853363 </i>
   </energy>
  </scstep>
  <scstep>
   <time name="dav">    0.36    0.36</time>
   <time name="total">    0.40    0.40</time>
   <energy>
    <i name="e_fr_energy">    -14.68845733 </i>
    <i name="e_wo_entrp">    -14.68868084 </i>
    <i name="e_0_energy">    -14.68853183 </i>
   </energy>
  </scstep>
  <scstep>
   <time name="dav">    0.26    0.26</time>
   <time name="total">    0.27    0.27</time>
   <energy>
    <i name="alphaZ">    270.69264205 </i>
    <i name="ewald">  -4552.45645888 </i>
    <i name="hartreedc">  -1281.07696070 </i>
    <i name="XCdc">    179.51628063 </i>
    <i name="pawpsdc">   5406.33126492 </i>
    <i name="pawaedc">  -5840.34849730 </i>
    <i name="eentropy">      0.00022351 </i>
    <i name="bandstr">    238.87694362 </i>
    <i name="atom">   5563.77610493 </i>
    <i name="e_fr_energy">    -14.68845722 </i>
    <i name="e_wo_entrp">    -14.68868074 </i>
    <i name="e_0_energy">    -14.68853173 </i>
   </energy>
  </scstep>
  <structure>
   <crystal>
    <varray name="basis" >
     <v>       3.50955391       0.00000000       0.00000000 </v>
     <v>       0.00000000       3.50955391       0.00000000 </v>
     <v>       0.00000000       0.00000000       3.50955391 </v>
    </varray>
    <i name="volume">     43.22706559 </i>
    <varray name="rec_basis" >
     <v>       0.28493650       0.00000000       0.00000000 </v>
     <v>       0.00000000       0.28493650       0.00000000 </v>
     <v>       0.00000000       0.00000000       0.28493650 </v>
    </varray>
   </crystal>
   <varray name="positions" >
    <v>       0.00000000       0.00000000       0.00000000 </v>
    <v>       0.50000000       0.50000000       0.00000000 </v>
    <v>       0.50000000       0.00000000       0.50000000 </v>
    <v>       0.00000000       0.50000000       0.50000000 </v>
   </varray>
  </structure>
  <varray name="forces" >
   <v>      -0.00000000      -0.00000000      -0.00000000 </v>
   <v>       0.00000000       0.00000000       0.00000000 </v>
   <v>      -0.00000000       0.00000000       0.00000000 </v>
   <v>       0.00000000       0.00000000      -0.00000000 </v>
  </varray>
  <varray name="stress" >
   <v>     186.61194588      -0.00000000      -0.00000000 </v>
   <v>      -0.00000000     186.61194588      -0.00000000 </v>
   <v>      -0.00000000      -0.00000000     186.61194588 </v>
  </varray>
  <energy>
   <i name="e_fr_energy">    -14.68845722 </i>
   <i name="e_wo_entrp">    -14.68868074 </i>
   <i name="e_0_energy">    -14.68853173 </i>
  </energy>
  <time name="totalsc">    2.00    2.02</time>
  <eigenvalues>
   <array>
    <dimension dim="1">band</dimension>
    <dimension dim="2">kpoint</dimension>
    <dimension dim="3">spin</dimension>
    <field>eigene</field>
    <field>occ</field>
    <set>
     <set comment="spin 1">
      <set comment="kpoint 1">
       <r>   -1.3125    1.0000 </r>
       <r>    3.3121    1.0000 </r>
       <r>    3.3121    1.0000 </r>
       <r>    3.3121    1.0000 </r>
       <r>    3.8302    1.0000 </r>
       <r>    3.8302    1.0000 </r>
       <r>    3.8302    1.0000 </r>
       <r>    5.4303    1.0000 </r>
       <r>    5.4303    1.0000 </r>
       <r>    5.4303    1.0000 </r>
       <r>    6.3792    1.0000 </r>
       <r>    6.3792    1.0000 </r>
       <r>    7.0088    1.0000 </r>
       <r>    7.0088    1.0000 </r>
       <r>    7.0088    1.0000 </r>
       <r>    7.1877    1.0000 </r>
       <r>    7.1877    1.0000 </r>
       <r>    7.1877    1.0000 </r>
       <r>    7.1877    1.0000 </r>
       <r>    7.1877    1.0000 </r>
       <r>    7.1877    1.0000 </r>
       <r>   10.1702   -0.0000 </r>
       <r>   10.1702   -0.0000 </r>
       <r>   10.1702   -0.0000 </r>
       <r>   16.4988    0.0000 </r>
       <r>   16.4988    0.0000 </r>
       <r>   16.4988    0.0000 </r>
       <r>   22.5251    0.0000 </r>
       <r>   22.5251    0.0000 </r>
       <r>   22.5251    0.0000 </r>
      </set>
      <set comment="kpoint 2">
       <r>   -1.1526    1.0000 </r>
       <r>    3.3126    1.0000 </r>
       <r>    3.3900    1.0000 </r>
       <r>    3.3900    1.0000 </r>
       <r>    3.8755    1.0000 </r>
       <r>    3.8786    1.0000 </r>
       <r>    3.8786    1.0000 </r>
       <r>    5.3789    1.0000 </r>
       <r>    5.4707    1.0000 </r>
       <r>    5.4707    1.0000 </r>
       <r>    6.3323    1.0000 </r>
       <r>    6.3977    1.0000 </r>
       <r>    6.8857    1.0000 </r>
       <r>    6.8857    1.0000 </r>
       <r>    6.9484    1.0000 </r>
       <r>    6.9484    1.0000 </r>
       <r>    6.9893    1.0000 </r>
       <r>    7.1168    1.0000 </r>
       <r>    7.1168    1.0000 </r>
       <r>    7.1880    1.0000 </r>
       <r>    7.1880    1.0000 </r>
       <r>    9.3180   -0.0002 </r>
       <r>   10.6122   -0.0000 </r>
       <r>   10.6122   -0.0000 </r>
       <r>   16.5491    0.0000 </r>
       <r>   16.5491    0.0000 </r>
       <r>   17.6531    0.0000 </r>
       <r>   21.5713    0.0000 </r>
       <r>   21.5713    0.0000 </r>
       <r>   21.9275    0.0000 </r>
      </set>
      <set comment="kpoint 3">
       <r>   -0.6799    1.0000 </r>
       <r>    3.2555    1.0000 </r>
       <r>    3.6022    1.0000 </r>
       <r>    3.6022    1.0000 </r>
       <r>    4.0066    1.0000 </r>
       <r>    4.0243    1.0000 </r>
       <r>    4.0243    1.0000 </r>
       <r>    5.2314    1.0000 </r>
       <r>    5.5900    1.0000 </r>
       <r>    5.5900    1.0000 </r>
       <r>    6.2024    1.0000 </r>
       <r>    6.2730    1.0000 </r>
       <r>    6.2730    1.0000 </r>
       <r>    6.4511    1.0000 </r>
       <r>    6.7783    1.0000 </r>
       <r>    6.7783    1.0000 </r>
       <r>    6.9216    1.0000 </r>
       <r>    6.9216    1.0000 </r>
       <r>    6.9333    1.0000 </r>
       <r>    7.1881    1.0000 </r>
       <r>    7.1881    1.0000 </r>
       <r>    7.7542    1.0000 </r>
       <r>   11.6430   -0.0000 </r>
       <r>   11.6430   -0.0000 </r>
       <r>   16.7082    0.0000 </r>
       <r>   16.7082    0.0000 </r>
       <r>   19.7924    0.0000 </r>
       <r>   19.7924    0.0000 </r>
       <r>   20.1658    0.0000 </r>
       <r>   20.6939    0.0000 </r>
      </set>
      <set comment="kpoint 4">
       <r>    0.0807    1.0000 </r>
       <r>    2.9316    1.0000 </r>
       <r>    3.8832    1.0000 </r>
       <r>    3.8832    1.0000 </r>
       <r>    4.2104    1.0000 </r>
       <r>    4.2710    1.0000 </r>
       <r>    4.2710    1.0000 </r>
       <r>    5.0095    1.0000 </r>
       <r>    5.6401    1.0000 </r>
       <r>    5.6401    1.0000 </r>
       <r>    5.7831    1.0000 </r>
       <r>    5.7831    1.0000 </r>
       <r>    6.0230    1.0000 </r>
       <r>    6.4778    1.0000 </r>
       <r>    6.5335    1.0000 </r>
       <r>    6.5443    1.0000 </r>
       <r>    6.5443    1.0000 </r>
       <r>    6.6446    1.0000 </r>
       <r>    6.6446    1.0000 </r>
       <r>    6.8480    1.0000 </r>
       <r>    7.1884    1.0000 </r>
       <r>    7.1884    1.0000 </r>
       <r>   12.9671   -0.0000 </r>
       <r>   12.9671   -0.0000 </r>
       <r>   16.9958    0.0000 </r>
       <r>   16.9958    0.0000 </r>
       <r>   17.9305    0.0000 </r>
       <r>   17.9305    0.0000 </r>
       <r>   19.4700    0.0000 </r>
       <r>   19.4700    0.0000 </r>
      </set>
      <set comment="kpoint 5">
       <r>    1.0682    1.0000 </r>
       <r>    2.1285    1.0000 </r>
       <r>    4.1027    1.0000 </r>
       <r>    4.1027    1.0000 </r>
       <r>    4.4654    1.0000 </r>
       <r>    4.6224    1.0000 </r>
       <r>    4.6224    1.0000 </r>
       <r>    4.7427    1.0000 </r>
       <r>    5.0806    1.0000 </r>
       <r>    5.0806    1.0000 </r>
       <r>    5.8690    1.0000 </r>
       <r>    5.9093    1.0000 </r>
       <r>    6.0383    1.0000 </r>
       <r>    6.0383    1.0000 </r>
       <r>    6.3360    1.0000 </r>
       <r>    6.3360    1.0000 </r>
       <r>    6.3547    1.0000 </r>
       <r>    6.3547    1.0000 </r>
       <r>    6.6353    1.0000 </r>
       <r>    6.7443    1.0000 </r>
       <r>    7.1886    1.0000 </r>
       <r>    7.1886    1.0000 </r>
       <r>   14.4811    0.0000 </r>
       <r>   14.4811    0.0000 </r>
       <r>   16.1447    0.0000 </r>
       <r>   16.1447    0.0000 </r>
       <r>   17.3869    0.0000 </r>
       <r>   17.3869    0.0000 </r>
       <r>   18.5623    0.0000 </r>
       <r>   18.5623    0.0000 </r>
      </set>
      <set comment="kpoint 6">
       <r>   -0.9941    1.0000 </r>
       <r>    3.3934    1.0000 </r>
       <r>    3.3934    1.0000 </r>
       <r>    3.4641    1.0000 </r>
       <r>    3.9222    1.0000 </r>
       <r>    3.9222    1.0000 </r>
       <r>    3.9236    1.0000 </r>
       <r>    5.3503    1.0000 </r>
       <r>    5.4897    1.0000 </r>
       <r>    5.5034    1.0000 </r>
       <r>    6.3202    1.0000 </r>
       <r>    6.3891    1.0000 </r>
       <r>    6.6863    1.0000 </r>
       <r>    6.7571    1.0000 </r>
       <r>    6.7571    1.0000 </r>
       <r>    6.8924    1.0000 </r>
       <r>    6.9618    1.0000 </r>
       <r>    6.9618    1.0000 </r>
       <r>    7.1166    1.0000 </r>
       <r>    7.1166    1.0000 </r>
       <r>    7.1423    1.0000 </r>
       <r>    9.7561   -0.0000 </r>
       <r>    9.7561   -0.0000 </r>
       <r>   10.9976   -0.0000 </r>
       <r>   16.5962    0.0000 </r>
       <r>   17.7326    0.0000 </r>
       <r>   17.7326    0.0000 </r>
       <r>   19.8415    0.0000 </r>
       <r>   21.7870    0.0000 </r>
       <r>   21.7870    0.0000 </r>
      </set>
      <set comment="kpoint 7">
       <r>   -0.5254    1.0000 </r>
       <r>    3.3458    1.0000 </r>
       <r>    3.6151    1.0000 </r>
       <r>    3.6685    1.0000 </r>
       <r>    4.0486    1.0000 </r>
       <r>    4.0590    1.0000 </r>
       <r>    4.0630    1.0000 </r>
       <r>    5.2209    1.0000 </r>
       <r>    5.5972    1.0000 </r>
       <r>    5.5975    1.0000 </r>
       <r>    6.1440    1.0000 </r>
       <r>    6.1762    1.0000 </r>
       <r>    6.2142    1.0000 </r>
       <r>    6.4448    1.0000 </r>
       <r>    6.4525    1.0000 </r>
       <r>    6.7344    1.0000 </r>
       <r>    6.7884    1.0000 </r>
       <r>    6.9096    1.0000 </r>
       <r>    6.9208    1.0000 </r>
       <r>    7.1160    1.0000 </r>
       <r>    7.1181    1.0000 </r>
       <r>    8.2744    1.0018 </r>
       <r>   10.7020   -0.0000 </r>
       <r>   11.9516   -0.0000 </r>
       <r>   16.7106    0.0000 </r>
       <r>   17.9793    0.0000 </r>
       <r>   17.9926    0.0000 </r>
       <r>   19.9928    0.0000 </r>
       <r>   20.2637    0.0000 </r>
       <r>   20.8880    0.0000 </r>
      </set>
      <set comment="kpoint 8">
       <r>    0.2278    1.0000 </r>
       <r>    3.0365    1.0000 </r>
       <r>    3.9125    1.0000 </r>
       <r>    3.9445    1.0000 </r>
       <r>    4.2449    1.0000 </r>
       <r>    4.2801    1.0000 </r>
       <r>    4.3008    1.0000 </r>
       <r>    5.0111    1.0000 </r>
       <r>    5.5296    1.0000 </r>
       <r>    5.6005    1.0000 </r>
       <r>    5.7143    1.0000 </r>
       <r>    5.7862    1.0000 </r>
       <r>    5.9944    1.0000 </r>
       <r>    6.0908    1.0000 </r>
       <r>    6.5161    1.0000 </r>
       <r>    6.5476    1.0000 </r>
       <r>    6.5562    1.0000 </r>
       <r>    6.6436    1.0000 </r>
       <r>    6.7601    1.0000 </r>
       <r>    7.1129    1.0000 </r>
       <r>    7.1151    1.0000 </r>
       <r>    7.2352    1.0000 </r>
       <r>   11.8529   -0.0000 </r>
       <r>   13.2258   -0.0000 </r>
       <r>   16.0243    0.0000 </r>
       <r>   17.2537    0.0000 </r>
       <r>   18.1308    0.0000 </r>
       <r>   18.3907    0.0000 </r>
       <r>   19.6673    0.0000 </r>
       <r>   21.4363    0.0000 </r>
      </set>
      <set comment="kpoint 9">
       <r>    1.2037    1.0000 </r>
       <r>    2.2489    1.0000 </r>
       <r>    4.1541    1.0000 </r>
       <r>    4.1678    1.0000 </r>
       <r>    4.4900    1.0000 </r>
       <r>    4.5830    1.0000 </r>
       <r>    4.6386    1.0000 </r>
       <r>    4.7562    1.0000 </r>
       <r>    4.9996    1.0000 </r>
       <r>    5.0752    1.0000 </r>
       <r>    5.7009    1.0000 </r>
       <r>    5.7067    1.0000 </r>
       <r>    6.0391    1.0000 </r>
       <r>    6.1690    1.0000 </r>
       <r>    6.3353    1.0000 </r>
       <r>    6.3439    1.0000 </r>
       <r>    6.3605    1.0000 </r>
       <r>    6.4529    1.0000 </r>
       <r>    6.6807    1.0000 </r>
       <r>    6.8519    1.0000 </r>
       <r>    7.1127    1.0000 </r>
       <r>    7.1139    1.0000 </r>
       <r>   13.1302   -0.0000 </r>
       <r>   14.5258    0.0000 </r>
       <r>   14.7092    0.0000 </r>
       <r>   16.3544    0.0000 </r>
       <r>   17.6992    0.0000 </r>
       <r>   18.3720    0.0000 </r>
       <r>   19.3568    0.0000 </r>
       <r>   20.2503    0.0000 </r>
      </set>
      <set comment="kpoint 10">
       <r>   -0.0698    1.0000 </r>
       <r>    3.5962    1.0000 </r>
       <r>    3.5962    1.0000 </r>
       <r>    3.8502    1.0000 </r>
       <r>    4.1634    1.0000 </r>
       <r>    4.1748    1.0000 </r>
       <r>    4.1748    1.0000 </r>
       <r>    5.1528    1.0000 </r>
       <r>    5.6203    1.0000 </r>
       <r>    5.6589    1.0000 </r>
       <r>    5.8317    1.0000 </r>
       <r>    5.8317    1.0000 </r>
       <r>    5.8864    1.0000 </r>
       <r>    6.1781    1.0000 </r>
       <r>    6.5018    1.0000 </r>
       <r>    6.6076    1.0000 </r>
       <r>    6.7572    1.0000 </r>
       <r>    6.7572    1.0000 </r>
       <r>    6.9187    1.0000 </r>
       <r>    6.9187    1.0000 </r>
       <r>    7.0085    1.0000 </r>
       <r>    9.1411   -0.0098 </r>
       <r>    9.1411   -0.0098 </r>
       <r>   12.7745   -0.0000 </r>
       <r>   15.7201    0.0000 </r>
       <r>   17.1523    0.0000 </r>
       <r>   20.5141    0.0000 </r>
       <r>   20.5141    0.0000 </r>
       <r>   20.5722    0.0000 </r>
       <r>   20.5722    0.0000 </r>
      </set>
      <set comment="kpoint 11">
       <r>    0.6595    1.0000 </r>
       <r>    3.3293    1.0000 </r>
       <r>    3.9423    1.0000 </r>
       <r>    4.1037    1.0000 </r>
       <r>    4.3185    1.0000 </r>
       <r>    4.3477    1.0000 </r>
       <r>    4.3865    1.0000 </r>
       <r>    4.9993    1.0000 </r>
       <r>    5.2784    1.0000 </r>
       <r>    5.4764    1.0000 </r>
       <r>    5.5068    1.0000 </r>
       <r>    5.6261    1.0000 </r>
       <r>    5.8151    1.0000 </r>
       <r>    6.1073    1.0000 </r>
       <r>    6.4282    1.0000 </r>
       <r>    6.5383    1.0000 </r>
       <r>    6.6243    1.0000 </r>
       <r>    6.6419    1.0000 </r>
       <r>    6.6648    1.0000 </r>
       <r>    6.9165    1.0000 </r>
       <r>    6.9473    1.0000 </r>
       <r>    7.9306    1.0000 </r>
       <r>   10.1219   -0.0000 </r>
       <r>   13.9449   -0.0000 </r>
       <r>   13.9984   -0.0000 </r>
       <r>   17.4671    0.0000 </r>
       <r>   18.7095    0.0000 </r>
       <r>   19.9472    0.0000 </r>
       <r>   21.2987    0.0000 </r>
       <r>   21.4758    0.0000 </r>
      </set>
      <set comment="kpoint 12">
       <r>    1.5973    1.0000 </r>
       <r>    2.5912    1.0000 </r>
       <r>    4.2574    1.0000 </r>
       <r>    4.3486    1.0000 </r>
       <r>    4.4754    1.0000 </r>
       <r>    4.5614    1.0000 </r>
       <r>    4.6825    1.0000 </r>
       <r>    4.7894    1.0000 </r>
       <r>    4.8178    1.0000 </r>
       <r>    5.0546    1.0000 </r>
       <r>    5.4183    1.0000 </r>
       <r>    5.5297    1.0000 </r>
       <r>    6.0506    1.0000 </r>
       <r>    6.1773    1.0000 </r>
       <r>    6.2944    1.0000 </r>
       <r>    6.3375    1.0000 </r>
       <r>    6.3393    1.0000 </r>
       <r>    6.3942    1.0000 </r>
       <r>    6.9009    1.0000 </r>
       <r>    6.9163    1.0000 </r>
       <r>    6.9232    1.0000 </r>
       <r>    7.2560    1.0000 </r>
       <r>   11.2241   -0.0000 </r>
       <r>   12.4980   -0.0000 </r>
       <r>   15.3575    0.0000 </r>
       <r>   16.9572    0.0000 </r>
       <r>   18.0410    0.0000 </r>
       <r>   18.8729    0.0000 </r>
       <r>   22.0666    0.0000 </r>
       <r>   22.6407    0.0000 </r>
      </set>
      <set comment="kpoint 13">
       <r>    1.3428    1.0000 </r>
       <r>    3.7397    1.0000 </r>
       <r>    3.7397    1.0000 </r>
       <r>    4.2614    1.0000 </r>
       <r>    4.4313    1.0000 </r>
       <r>    4.5162    1.0000 </r>
       <r>    4.5162    1.0000 </r>
       <r>    4.9396    1.0000 </r>
       <r>    5.1087    1.0000 </r>
       <r>    5.1087    1.0000 </r>
       <r>    5.2673    1.0000 </r>
       <r>    5.5505    1.0000 </r>
       <r>    5.9125    1.0000 </r>
       <r>    6.0344    1.0000 </r>
       <r>    6.2908    1.0000 </r>
       <r>    6.4234    1.0000 </r>
       <r>    6.4234    1.0000 </r>
       <r>    6.6438    1.0000 </r>
       <r>    6.6438    1.0000 </r>
       <r>    6.7952    1.0000 </r>
       <r>    6.9183    1.0000 </r>
       <r>    8.7142    0.6656 </r>
       <r>    8.7142    0.6656 </r>
       <r>   12.2252   -0.0000 </r>
       <r>   15.0153    0.0000 </r>
       <r>   17.9086    0.0000 </r>
       <r>   19.6135    0.0000 </r>
       <r>   19.6135    0.0000 </r>
       <r>   20.7439    0.0000 </r>
       <r>   20.7439    0.0000 </r>
      </set>
      <set comment="kpoint 14">
       <r>    2.2040    1.0000 </r>
       <r>    3.0911    1.0000 </r>
       <r>    4.1274    1.0000 </r>
       <r>    4.3041    1.0000 </r>
       <r>    4.6057    1.0000 </r>
       <r>    4.6703    1.0000 </r>
       <r>    4.7424    1.0000 </r>
       <r>    4.8110    1.0000 </r>
       <r>    4.8221    1.0000 </r>
       <r>    5.0055    1.0000 </r>
       <r>    5.2014    1.0000 </r>
       <r>    5.4052    1.0000 </r>
       <r>    6.0543    1.0000 </r>
       <r>    6.0986    1.0000 </r>
       <r>    6.1834    1.0000 </r>
       <r>    6.2233    1.0000 </r>
       <r>    6.2354    1.0000 </r>
       <r>    6.3547    1.0000 </r>
       <r>    6.6588    1.0000 </r>
       <r>    6.7022    1.0000 </r>
       <r>    7.2744    1.0000 </r>
       <r>    7.8077    1.0000 </r>
       <r>    9.6350   -0.0000 </r>
       <r>   10.7789   -0.0000 </r>
       <r>   16.3493    0.0000 </r>
       <r>   17.8933    0.0000 </r>
       <r>   18.5847    0.0000 </r>
       <r>   19.5270    0.0000 </r>
       <r>   20.7856    0.0000 </r>
       <r>   21.7697    0.0000 </r>
      </set>
      <set comment="kpoint 15">
       <r>    2.9297    1.0000 </r>
       <r>    3.6241    1.0000 </r>
       <r>    3.6241    1.0000 </r>
       <r>    4.0418    1.0000 </r>
       <r>    4.7984    1.0000 </r>
       <r>    4.7984    1.0000 </r>
       <r>    4.8288    1.0000 </r>
       <r>    4.8602    1.0000 </r>
       <r>    4.9182    1.0000 </r>
       <r>    5.0435    1.0000 </r>
       <r>    5.0435    1.0000 </r>
       <r>    5.2699    1.0000 </r>
       <r>    5.9764    1.0000 </r>
       <r>    6.0606    1.0000 </r>
       <r>    6.0686    1.0000 </r>
       <r>    6.0686    1.0000 </r>
       <r>    6.2136    1.0000 </r>
       <r>    6.4078    1.0000 </r>
       <r>    6.4078    1.0000 </r>
       <r>    6.5206    1.0000 </r>
       <r>    7.7746    1.0000 </r>
       <r>    8.5051    1.0354 </r>
       <r>    8.5051    1.0354 </r>
       <r>    9.4565   -0.0000 </r>
       <r>   17.6136    0.0000 </r>
       <r>   19.1022    0.0000 </r>
       <r>   19.1022    0.0000 </r>
       <r>   19.3742    0.0000 </r>
       <r>   20.4338    0.0000 </r>
       <r>   20.4338    0.0000 </r>
      </set>
      <set comment="kpoint 16">
       <r>   -0.8369    1.0000 </r>
       <r>    3.4697    1.0000 </r>
       <r>    3.4697    1.0000 </r>
       <r>    3.4697    1.0000 </r>
       <r>    3.9659    1.0000 </r>
       <r>    3.9659    1.0000 </r>
       <r>    3.9659    1.0000 </r>
       <r>    5.3259    1.0000 </r>
       <r>    5.5181    1.0000 </r>
       <r>    5.5181    1.0000 </r>
       <r>    6.3482    1.0000 </r>
       <r>    6.3482    1.0000 </r>
       <r>    6.5774    1.0000 </r>
       <r>    6.5774    1.0000 </r>
       <r>    6.5774    1.0000 </r>
       <r>    6.8268    1.0000 </r>
       <r>    6.8268    1.0000 </r>
       <r>    6.8268    1.0000 </r>
       <r>    7.1263    1.0000 </r>
       <r>    7.1263    1.0000 </r>
       <r>    7.1263    1.0000 </r>
       <r>   10.1157   -0.0000 </r>
       <r>   10.1157   -0.0000 </r>
       <r>   10.1157   -0.0000 </r>
       <r>   17.8077    0.0000 </r>
       <r>   17.8077    0.0000 </r>
       <r>   17.8077    0.0000 </r>
       <r>   20.0476    0.0000 </r>
       <r>   20.0476    0.0000 </r>
       <r>   20.0476    0.0000 </r>
      </set>
      <set comment="kpoint 17">
       <r>   -0.3730    1.0000 </r>
       <r>    3.4288    1.0000 </r>
       <r>    3.6805    1.0000 </r>
       <r>    3.6805    1.0000 </r>
       <r>    4.0890    1.0000 </r>
       <r>    4.0971    1.0000 </r>
       <r>    4.0971    1.0000 </r>
       <r>    5.2125    1.0000 </r>
       <r>    5.5977    1.0000 </r>
       <r>    5.6032    1.0000 </r>
       <r>    6.0621    1.0000 </r>
       <r>    6.0621    1.0000 </r>
       <r>    6.2443    1.0000 </r>
       <r>    6.2579    1.0000 </r>
       <r>    6.4277    1.0000 </r>
       <r>    6.6556    1.0000 </r>
       <r>    6.6875    1.0000 </r>
       <r>    6.6875    1.0000 </r>
       <r>    7.0690    1.0000 </r>
       <r>    7.0997    1.0000 </r>
       <r>    7.0997    1.0000 </r>
       <r>    8.6070    0.9718 </r>
       <r>   10.9662   -0.0000 </r>
       <r>   10.9662   -0.0000 </r>
       <r>   17.8482    0.0000 </r>
       <r>   17.8482    0.0000 </r>
       <r>   18.3600    0.0000 </r>
       <r>   18.3600    0.0000 </r>
       <r>   20.2656    0.0000 </r>
       <r>   20.7397    0.0000 </r>
      </set>
      <set comment="kpoint 18">
       <r>    0.3715    1.0000 </r>
       <r>    3.1308    1.0000 </r>
       <r>    3.9683    1.0000 </r>
       <r>    3.9683    1.0000 </r>
       <r>    4.2805    1.0000 </r>
       <r>    4.3069    1.0000 </r>
       <r>    4.3069    1.0000 </r>
       <r>    5.0168    1.0000 </r>
       <r>    5.5091    1.0000 </r>
       <r>    5.5091    1.0000 </r>
       <r>    5.6891    1.0000 </r>
       <r>    5.7457    1.0000 </r>
       <r>    5.8258    1.0000 </r>
       <r>    6.1719    1.0000 </r>
       <r>    6.4241    1.0000 </r>
       <r>    6.4951    1.0000 </r>
       <r>    6.4951    1.0000 </r>
       <r>    6.5469    1.0000 </r>
       <r>    6.9684    1.0000 </r>
       <r>    7.0758    1.0000 </r>
       <r>    7.0758    1.0000 </r>
       <r>    7.4395    1.0000 </r>
       <r>   12.0492   -0.0000 </r>
       <r>   12.0492   -0.0000 </r>
       <r>   16.3352    0.0000 </r>
       <r>   16.3352    0.0000 </r>
       <r>   18.6112    0.0000 </r>
       <r>   18.6112    0.0000 </r>
       <r>   21.4875    0.0000 </r>
       <r>   21.6101    0.0000 </r>
      </set>
      <set comment="kpoint 19">
       <r>    1.3338    1.0000 </r>
       <r>    2.3604    1.0000 </r>
       <r>    4.2185    1.0000 </r>
       <r>    4.2185    1.0000 </r>
       <r>    4.5184    1.0000 </r>
       <r>    4.5549    1.0000 </r>
       <r>    4.5549    1.0000 </r>
       <r>    4.7744    1.0000 </r>
       <r>    5.0486    1.0000 </r>
       <r>    5.0486    1.0000 </r>
       <r>    5.6026    1.0000 </r>
       <r>    5.6431    1.0000 </r>
       <r>    5.9402    1.0000 </r>
       <r>    6.1741    1.0000 </r>
       <r>    6.3264    1.0000 </r>
       <r>    6.3264    1.0000 </r>
       <r>    6.3376    1.0000 </r>
       <r>    6.6892    1.0000 </r>
       <r>    6.7472    1.0000 </r>
       <r>    6.8359    1.0000 </r>
       <r>    7.0654    1.0000 </r>
       <r>    7.0654    1.0000 </r>
       <r>   13.2208   -0.0000 </r>
       <r>   13.2208   -0.0000 </r>
       <r>   14.8662    0.0000 </r>
       <r>   14.8662    0.0000 </r>
       <r>   19.2911    0.0000 </r>
       <r>   19.2911    0.0000 </r>
       <r>   20.4293    0.0000 </r>
       <r>   20.4293    0.0000 </r>
      </set>
      <set comment="kpoint 20">
       <r>    0.0759    1.0000 </r>
       <r>    3.6567    1.0000 </r>
       <r>    3.6567    1.0000 </r>
       <r>    3.8570    1.0000 </r>
       <r>    4.2005    1.0000 </r>
       <r>    4.2107    1.0000 </r>
       <r>    4.2107    1.0000 </r>
       <r>    5.1557    1.0000 </r>
       <r>    5.6177    1.0000 </r>
       <r>    5.6388    1.0000 </r>
       <r>    5.7736    1.0000 </r>
       <r>    5.7736    1.0000 </r>
       <r>    5.8012    1.0000 </r>
       <r>    6.2467    1.0000 </r>
       <r>    6.4715    1.0000 </r>
       <r>    6.5097    1.0000 </r>
       <r>    6.5356    1.0000 </r>
       <r>    6.5356    1.0000 </r>
       <r>    7.0449    1.0000 </r>
       <r>    7.0449    1.0000 </r>
       <r>    7.0465    1.0000 </r>
       <r>    9.3440   -0.0001 </r>
       <r>    9.3440   -0.0001 </r>
       <r>   11.6468   -0.0000 </r>
       <r>   16.0537    0.0000 </r>
       <r>   18.4405    0.0000 </r>
       <r>   18.6496    0.0000 </r>
       <r>   18.6496    0.0000 </r>
       <r>   20.7482    0.0000 </r>
       <r>   20.7482    0.0000 </r>
      </set>
      <set comment="kpoint 21">
       <r>    0.7924    1.0000 </r>
       <r>    3.3876    1.0000 </r>
       <r>    3.9654    1.0000 </r>
       <r>    4.0950    1.0000 </r>
       <r>    4.3513    1.0000 </r>
       <r>    4.3901    1.0000 </r>
       <r>    4.4013    1.0000 </r>
       <r>    5.0197    1.0000 </r>
       <r>    5.3030    1.0000 </r>
       <r>    5.4369    1.0000 </r>
       <r>    5.4765    1.0000 </r>
       <r>    5.6196    1.0000 </r>
       <r>    5.7333    1.0000 </r>
       <r>    6.2329    1.0000 </r>
       <r>    6.3109    1.0000 </r>
       <r>    6.3444    1.0000 </r>
       <r>    6.3962    1.0000 </r>
       <r>    6.6371    1.0000 </r>
       <r>    6.9316    1.0000 </r>
       <r>    6.9819    1.0000 </r>
       <r>    6.9833    1.0000 </r>
       <r>    8.0300    1.0000 </r>
       <r>   10.2568   -0.0000 </r>
       <r>   12.4954   -0.0000 </r>
       <r>   14.4267    0.0000 </r>
       <r>   16.9135    0.0000 </r>
       <r>   18.9490    0.0000 </r>
       <r>   19.5333    0.0000 </r>
       <r>   21.2516    0.0000 </r>
       <r>   22.1751    0.0000 </r>
      </set>
      <set comment="kpoint 22">
       <r>    1.7089    1.0000 </r>
       <r>    2.6722    1.0000 </r>
       <r>    4.2621    1.0000 </r>
       <r>    4.3507    1.0000 </r>
       <r>    4.4277    1.0000 </r>
       <r>    4.5351    1.0000 </r>
       <r>    4.6063    1.0000 </r>
       <r>    4.8258    1.0000 </r>
       <r>    5.0138    1.0000 </r>
       <r>    5.1205    1.0000 </r>
       <r>    5.4046    1.0000 </r>
       <r>    5.5190    1.0000 </r>
       <r>    5.8774    1.0000 </r>
       <r>    6.0763    1.0000 </r>
       <r>    6.2227    1.0000 </r>
       <r>    6.2491    1.0000 </r>
       <r>    6.4084    1.0000 </r>
       <r>    6.7132    1.0000 </r>
       <r>    6.8650    1.0000 </r>
       <r>    6.9447    1.0000 </r>
       <r>    6.9453    1.0000 </r>
       <r>    7.2389    1.0000 </r>
       <r>   11.2978   -0.0000 </r>
       <r>   12.4013   -0.0000 </r>
       <r>   14.2014   -0.0000 </r>
       <r>   15.3998    0.0000 </r>
       <r>   19.7220    0.0000 </r>
       <r>   20.6721    0.0000 </r>
       <r>   20.7458    0.0000 </r>
       <r>   22.0393    0.0000 </r>
      </set>
      <set comment="kpoint 23">
       <r>    1.4543    1.0000 </r>
       <r>    3.7238    1.0000 </r>
       <r>    3.7238    1.0000 </r>
       <r>    4.1728    1.0000 </r>
       <r>    4.4958    1.0000 </r>
       <r>    4.5735    1.0000 </r>
       <r>    4.5735    1.0000 </r>
       <r>    4.9867    1.0000 </r>
       <r>    5.1625    1.0000 </r>
       <r>    5.1625    1.0000 </r>
       <r>    5.3078    1.0000 </r>
       <r>    5.5526    1.0000 </r>
       <r>    5.7533    1.0000 </r>
       <r>    6.1787    1.0000 </r>
       <r>    6.2081    1.0000 </r>
       <r>    6.2081    1.0000 </r>
       <r>    6.2289    1.0000 </r>
       <r>    6.8345    1.0000 </r>
       <r>    6.8345    1.0000 </r>
       <r>    6.8744    1.0000 </r>
       <r>    6.8813    1.0000 </r>
       <r>    8.7715    0.4272 </r>
       <r>    8.7715    0.4272 </r>
       <r>   12.0581   -0.0000 </r>
       <r>   13.9789   -0.0000 </r>
       <r>   17.7696    0.0000 </r>
       <r>   17.7696    0.0000 </r>
       <r>   19.5282    0.0000 </r>
       <r>   21.8142    0.0000 </r>
       <r>   22.8145    0.0000 </r>
      </set>
      <set comment="kpoint 24">
       <r>    2.2779    1.0000 </r>
       <r>    3.1105    1.0000 </r>
       <r>    4.0118    1.0000 </r>
       <r>    4.1576    1.0000 </r>
       <r>    4.6611    1.0000 </r>
       <r>    4.7351    1.0000 </r>
       <r>    4.7569    1.0000 </r>
       <r>    4.8977    1.0000 </r>
       <r>    5.0198    1.0000 </r>
       <r>    5.1520    1.0000 </r>
       <r>    5.2304    1.0000 </r>
       <r>    5.4156    1.0000 </r>
       <r>    5.8296    1.0000 </r>
       <r>    5.9945    1.0000 </r>
       <r>    6.0695    1.0000 </r>
       <r>    6.0950    1.0000 </r>
       <r>    6.3566    1.0000 </r>
       <r>    6.6072    1.0000 </r>
       <r>    6.7751    1.0000 </r>
       <r>    6.7912    1.0000 </r>
       <r>    7.2322    1.0000 </r>
       <r>    7.7891    1.0000 </r>
       <r>    9.6638   -0.0000 </r>
       <r>   10.7695   -0.0000 </r>
       <r>   14.9402    0.0000 </r>
       <r>   16.2358    0.0000 </r>
       <r>   18.8841    0.0000 </r>
       <r>   20.2352    0.0000 </r>
       <r>   20.3746    0.0000 </r>
       <r>   21.4900    0.0000 </r>
      </set>
      <set comment="kpoint 25">
       <r>    2.9395    1.0000 </r>
       <r>    3.5522    1.0000 </r>
       <r>    3.5522    1.0000 </r>
       <r>    3.8999    1.0000 </r>
       <r>    4.9041    1.0000 </r>
       <r>    4.9430    1.0000 </r>
       <r>    4.9430    1.0000 </r>
       <r>    4.9572    1.0000 </r>
       <r>    5.1022    1.0000 </r>
       <r>    5.1022    1.0000 </r>
       <r>    5.1151    1.0000 </r>
       <r>    5.2955    1.0000 </r>
       <r>    5.8118    1.0000 </r>
       <r>    5.9155    1.0000 </r>
       <r>    5.9155    1.0000 </r>
       <r>    5.9336    1.0000 </r>
       <r>    6.3952    1.0000 </r>
       <r>    6.5671    1.0000 </r>
       <r>    6.5671    1.0000 </r>
       <r>    6.6414    1.0000 </r>
       <r>    7.7310    1.0000 </r>
       <r>    8.4837    1.0334 </r>
       <r>    8.4837    1.0334 </r>
       <r>    9.4428   -0.0000 </r>
       <r>   16.0140    0.0000 </r>
       <r>   17.3313    0.0000 </r>
       <r>   17.3313    0.0000 </r>
       <r>   18.6657    0.0000 </r>
       <r>   21.2964    0.0000 </r>
       <r>   22.4861    0.0000 </r>
      </set>
      <set comment="kpoint 26">
       <r>    0.5032    1.0000 </r>
       <r>    3.8078    1.0000 </r>
       <r>    3.8078    1.0000 </r>
       <r>    3.8078    1.0000 </r>
       <r>    4.3246    1.0000 </r>
       <r>    4.3246    1.0000 </r>
       <r>    4.3246    1.0000 </r>
       <r>    5.1431    1.0000 </r>
       <r>    5.5880    1.0000 </r>
       <r>    5.5880    1.0000 </r>
       <r>    5.5880    1.0000 </r>
       <r>    5.6171    1.0000 </r>
       <r>    5.6171    1.0000 </r>
       <r>    6.3050    1.0000 </r>
       <r>    6.3050    1.0000 </r>
       <r>    6.3050    1.0000 </r>
       <r>    6.4089    1.0000 </r>
       <r>    6.4089    1.0000 </r>
       <r>    7.0813    1.0000 </r>
       <r>    7.0813    1.0000 </r>
       <r>    7.0813    1.0000 </r>
       <r>    9.8770   -0.0000 </r>
       <r>    9.8770   -0.0000 </r>
       <r>    9.8770   -0.0000 </r>
       <r>   16.6496    0.0000 </r>
       <r>   16.6496    0.0000 </r>
       <r>   16.6496    0.0000 </r>
       <r>   21.0924    0.0000 </r>
       <r>   21.0924    0.0000 </r>
       <r>   21.0924    0.0000 </r>
      </set>
      <set comment="kpoint 27">
       <r>    1.1777    1.0000 </r>
       <r>    3.5270    1.0000 </r>
       <r>    3.9793    1.0000 </r>
       <r>    3.9793    1.0000 </r>
       <r>    4.4979    1.0000 </r>
       <r>    4.4979    1.0000 </r>
       <r>    4.5292    1.0000 </r>
       <r>    5.0759    1.0000 </r>
       <r>    5.3550    1.0000 </r>
       <r>    5.3550    1.0000 </r>
       <r>    5.3883    1.0000 </r>
       <r>    5.5951    1.0000 </r>
       <r>    5.6413    1.0000 </r>
       <r>    6.0808    1.0000 </r>
       <r>    6.1579    1.0000 </r>
       <r>    6.1579    1.0000 </r>
       <r>    6.4267    1.0000 </r>
       <r>    6.6055    1.0000 </r>
       <r>    7.0275    1.0000 </r>
       <r>    7.0275    1.0000 </r>
       <r>    7.0525    1.0000 </r>
       <r>    8.3759    1.0112 </r>
       <r>   10.5967   -0.0000 </r>
       <r>   10.5967   -0.0000 </r>
       <r>   14.9651    0.0000 </r>
       <r>   14.9651    0.0000 </r>
       <r>   17.5126    0.0000 </r>
       <r>   21.5677    0.0000 </r>
       <r>   21.6779    0.0000 </r>
       <r>   21.6779    0.0000 </r>
      </set>
      <set comment="kpoint 28">
       <r>    2.0228    1.0000 </r>
       <r>    2.8851    1.0000 </r>
       <r>    4.1041    1.0000 </r>
       <r>    4.1041    1.0000 </r>
       <r>    4.6078    1.0000 </r>
       <r>    4.6078    1.0000 </r>
       <r>    4.7548    1.0000 </r>
       <r>    4.9436    1.0000 </r>
       <r>    5.2405    1.0000 </r>
       <r>    5.2405    1.0000 </r>
       <r>    5.3635    1.0000 </r>
       <r>    5.4844    1.0000 </r>
       <r>    5.7290    1.0000 </r>
       <r>    5.8799    1.0000 </r>
       <r>    6.0556    1.0000 </r>
       <r>    6.0556    1.0000 </r>
       <r>    6.7012    1.0000 </r>
       <r>    6.7965    1.0000 </r>
       <r>    6.9531    1.0000 </r>
       <r>    6.9687    1.0000 </r>
       <r>    6.9687    1.0000 </r>
       <r>    7.3256    1.0000 </r>
       <r>   11.2920   -0.0000 </r>
       <r>   11.2920   -0.0000 </r>
       <r>   13.7881   -0.0000 </r>
       <r>   13.7881   -0.0000 </r>
       <r>   18.6314    0.0000 </r>
       <r>   19.9856    0.0000 </r>
       <r>   22.4804    0.0000 </r>
       <r>   22.4804    0.0000 </r>
      </set>
      <set comment="kpoint 29">
       <r>    1.7690    1.0000 </r>
       <r>    3.6721    1.0000 </r>
       <r>    3.6721    1.0000 </r>
       <r>    3.9375    1.0000 </r>
       <r>    4.6825    1.0000 </r>
       <r>    4.7456    1.0000 </r>
       <r>    4.7456    1.0000 </r>
       <r>    5.1400    1.0000 </r>
       <r>    5.3017    1.0000 </r>
       <r>    5.3017    1.0000 </r>
       <r>    5.3997    1.0000 </r>
       <r>    5.5506    1.0000 </r>
       <r>    5.6019    1.0000 </r>
       <r>    5.9482    1.0000 </r>
       <r>    5.9482    1.0000 </r>
       <r>    5.9667    1.0000 </r>
       <r>    6.4815    1.0000 </r>
       <r>    6.7863    1.0000 </r>
       <r>    6.9912    1.0000 </r>
       <r>    7.0082    1.0000 </r>
       <r>    7.0082    1.0000 </r>
       <r>    8.9501   -0.0228 </r>
       <r>    8.9501   -0.0228 </r>
       <r>   10.8706   -0.0000 </r>
       <r>   13.6277   -0.0000 </r>
       <r>   15.7830    0.0000 </r>
       <r>   15.7830    0.0000 </r>
       <r>   19.7538    0.0000 </r>
       <r>   22.3032    0.0000 </r>
       <r>   24.6926    0.0000 </r>
      </set>
      <set comment="kpoint 30">
       <r>    2.4739    1.0000 </r>
       <r>    3.1525    1.0000 </r>
       <r>    3.7836    1.0000 </r>
       <r>    3.8682    1.0000 </r>
       <r>    4.8339    1.0000 </r>
       <r>    4.8745    1.0000 </r>
       <r>    5.0093    1.0000 </r>
       <r>    5.1483    1.0000 </r>
       <r>    5.3189    1.0000 </r>
       <r>    5.3470    1.0000 </r>
       <r>    5.4212    1.0000 </r>
       <r>    5.4351    1.0000 </r>
       <r>    5.6415    1.0000 </r>
       <r>    5.7650    1.0000 </r>
       <r>    5.8598    1.0000 </r>
       <r>    5.8655    1.0000 </r>
       <r>    6.6443    1.0000 </r>
       <r>    6.8849    1.0000 </r>
       <r>    6.9271    1.0000 </r>
       <r>    6.9302    1.0000 </r>
       <r>    7.1101    1.0000 </r>
       <r>    7.7597    1.0000 </r>
       <r>    9.6907   -0.0000 </r>
       <r>   10.4946   -0.0000 </r>
       <r>   13.5119   -0.0000 </r>
       <r>   14.4032    0.0000 </r>
       <r>   16.8617    0.0000 </r>
       <r>   18.1859    0.0000 </r>
       <r>   23.1805    0.0000 </r>
       <r>   24.2585    0.0000 </r>
      </set>
      <set comment="kpoint 31">
       <r>    2.9627    1.0000 </r>
       <r>    3.4062    1.0000 </r>
       <r>    3.4062    1.0000 </r>
       <r>    3.6377    1.0000 </r>
       <r>    5.0469    1.0000 </r>
       <r>    5.1531    1.0000 </r>
       <r>    5.1531    1.0000 </r>
       <r>    5.3454    1.0000 </r>
       <r>    5.3658    1.0000 </r>
       <r>    5.4094    1.0000 </r>
       <r>    5.4094    1.0000 </r>
       <r>    5.5130    1.0000 </r>
       <r>    5.6105    1.0000 </r>
       <r>    5.7022    1.0000 </r>
       <r>    5.7022    1.0000 </r>
       <r>    5.7232    1.0000 </r>
       <r>    6.6433    1.0000 </r>
       <r>    6.7968    1.0000 </r>
       <r>    6.7968    1.0000 </r>
       <r>    6.8318    1.0000 </r>
       <r>    7.5935    1.0000 </r>
       <r>    8.4059    1.0168 </r>
       <r>    8.4059    1.0168 </r>
       <r>    9.3306   -0.0002 </r>
       <r>   14.2353    0.0000 </r>
       <r>   15.3887    0.0000 </r>
       <r>   15.3887    0.0000 </r>
       <r>   16.6534    0.0000 </r>
       <r>   24.1089    0.0000 </r>
       <r>   25.2781    0.0000 </r>
      </set>
      <set comment="kpoint 32">
       <r>    2.2258    1.0000 </r>
       <r>    3.6068    1.0000 </r>
       <r>    3.6068    1.0000 </r>
       <r>    3.6068    1.0000 </r>
       <r>    4.9516    1.0000 </r>
       <r>    4.9516    1.0000 </r>
       <r>    4.9516    1.0000 </r>
       <r>    5.4005    1.0000 </r>
       <r>    5.5035    1.0000 </r>
       <r>    5.5035    1.0000 </r>
       <r>    5.5035    1.0000 </r>
       <r>    5.5217    1.0000 </r>
       <r>    5.5217    1.0000 </r>
       <r>    5.7614    1.0000 </r>
       <r>    5.7614    1.0000 </r>
       <r>    5.7614    1.0000 </r>
       <r>    6.7163    1.0000 </r>
       <r>    6.7163    1.0000 </r>
       <r>    7.0484    1.0000 </r>
       <r>    7.0484    1.0000 </r>
       <r>    7.0484    1.0000 </r>
       <r>    9.2322   -0.0019 </r>
       <r>    9.2322   -0.0019 </r>
       <r>    9.2322   -0.0019 </r>
       <r>   14.2134   -0.0000 </r>
       <r>   14.2134   -0.0000 </r>
       <r>   14.2134   -0.0000 </r>
       <r>   17.9540    0.0000 </r>
       <r>   25.3710    0.0000 </r>
       <r>   25.3710    0.0000 </r>
      </set>
      <set comment="kpoint 33">
       <r>    2.7312    1.0000 </r>
       <r>    3.2024    1.0000 </r>
       <r>    3.5634    1.0000 </r>
       <r>    3.5634    1.0000 </r>
       <r>    5.0654    1.0000 </r>
       <r>    5.0654    1.0000 </r>
       <r>    5.2307    1.0000 </r>
       <r>    5.4294    1.0000 </r>
       <r>    5.5229    1.0000 </r>
       <r>    5.5964    1.0000 </r>
       <r>    5.6060    1.0000 </r>
       <r>    5.6099    1.0000 </r>
       <r>    5.6595    1.0000 </r>
       <r>    5.6595    1.0000 </r>
       <r>    5.7121    1.0000 </r>
       <r>    5.7121    1.0000 </r>
       <r>    6.9036    1.0000 </r>
       <r>    6.9674    1.0000 </r>
       <r>    7.0012    1.0000 </r>
       <r>    7.0012    1.0000 </r>
       <r>    7.0192    1.0000 </r>
       <r>    7.8512    1.0000 </r>
       <r>    9.4928   -0.0000 </r>
       <r>    9.4928   -0.0000 </r>
       <r>   13.2798   -0.0000 </r>
       <r>   13.2798   -0.0000 </r>
       <r>   15.1767    0.0000 </r>
       <r>   16.4278    0.0000 </r>
       <r>   26.1523    0.0000 </r>
       <r>   26.1523    0.0000 </r>
      </set>
      <set comment="kpoint 34">
       <r>    3.0006    1.0000 </r>
       <r>    3.2746    1.0000 </r>
       <r>    3.2746    1.0000 </r>
       <r>    3.3910    1.0000 </r>
       <r>    5.2155    1.0000 </r>
       <r>    5.2735    1.0000 </r>
       <r>    5.2735    1.0000 </r>
       <r>    5.4031    1.0000 </r>
       <r>    5.4693    1.0000 </r>
       <r>    5.5261    1.0000 </r>
       <r>    5.5261    1.0000 </r>
       <r>    5.5448    1.0000 </r>
       <r>    5.9763    1.0000 </r>
       <r>    5.9763    1.0000 </r>
       <r>    5.9973    1.0000 </r>
       <r>    6.0415    1.0000 </r>
       <r>    6.8516    1.0000 </r>
       <r>    6.9699    1.0000 </r>
       <r>    6.9699    1.0000 </r>
       <r>    6.9731    1.0000 </r>
       <r>    7.3462    1.0000 </r>
       <r>    8.2387    1.0008 </r>
       <r>    8.2387    1.0008 </r>
       <r>    8.8939    0.0408 </r>
       <r>   13.1830   -0.0000 </r>
       <r>   13.9086   -0.0000 </r>
       <r>   13.9086   -0.0000 </r>
       <r>   14.9920    0.0000 </r>
       <r>   27.0881    0.0000 </r>
       <r>   28.1061    0.0000 </r>
      </set>
      <set comment="kpoint 35">
       <r>    3.0727    1.0000 </r>
       <r>    3.2003    1.0000 </r>
       <r>    3.2003    1.0000 </r>
       <r>    3.2003    1.0000 </r>
       <r>    5.3458    1.0000 </r>
       <r>    5.3458    1.0000 </r>
       <r>    5.3458    1.0000 </r>
       <r>    5.4084    1.0000 </r>
       <r>    5.4084    1.0000 </r>
       <r>    5.4348    1.0000 </r>
       <r>    5.4348    1.0000 </r>
       <r>    5.4348    1.0000 </r>
       <r>    6.5093    1.0000 </r>
       <r>    6.5093    1.0000 </r>
       <r>    6.5093    1.0000 </r>
       <r>    6.9599    1.0000 </r>
       <r>    6.9865    1.0000 </r>
       <r>    6.9865    1.0000 </r>
       <r>    7.0288    1.0000 </r>
       <r>    7.0288    1.0000 </r>
       <r>    7.0288    1.0000 </r>
       <r>    8.0121    1.0000 </r>
       <r>    8.0121    1.0000 </r>
       <r>    8.0121    1.0000 </r>
       <r>   13.0914   -0.0000 </r>
       <r>   13.0914   -0.0000 </r>
       <r>   13.0914   -0.0000 </r>
       <r>   13.7671   -0.0000 </r>
       <r>   29.7096    0.0000 </r>
       <r>   29.7096    0.0000 </r>
      </set>
     </set>
    </set>
   </array>
  </eigenvalues>
  <separator name="orbital magnetization" >
   <v name="MAGDIPOLOUT">      0.00000000      0.00000000      0.00000000</v>
  </separator>
  <dos>
   <i name="efermi">      8.75423963 </i>
   <total>
    <array>
     <dimension dim="1">gridpoints</dimension>
     <dimension dim="2">spin</dimension>
     <field>energy</field>
     <field>total</field>
     <field>integrated</field>
     <set>
      <set comment="spin 1">
       <r>    -3.3125     0.0000     0.0000 </r>
       <r>    -3.1958     0.0000     0.0000 </r>
       <r>    -3.0791     0.0000     0.0000 </r>
       <r>    -2.9623    -0.0000    -0.0000 </r>
       <r>    -2.8456    -0.0000    -0.0000 </r>
       <r>    -2.7288    -0.0000    -0.0000 </r>
       <r>    -2.6121    -0.0000    -0.0000 </r>
       <r>    -2.4954    -0.0000    -0.0000 </r>
       <r>    -2.3786    -0.0000    -0.0000 </r>
       <r>    -2.2619    -0.0000    -0.0000 </r>
       <r>    -2.1451    -0.0000    -0.0000 </r>
       <r>    -2.0284    -0.0000    -0.0000 </r>
       <r>    -1.9117    -0.0000    -0.0000 </r>
       <r>    -1.7949    -0.0000    -0.0000 </r>
       <r>    -1.6782    -0.0004    -0.0000 </r>
       <r>    -1.5614    -0.0015    -0.0002 </r>
       <r>    -1.4447    -0.0019    -0.0004 </r>
       <r>    -1.3280     0.0071     0.0004 </r>
       <r>    -1.2112     0.0431     0.0054 </r>
       <r>    -1.0945     0.1102     0.0183 </r>
       <r>    -0.9777     0.1712     0.0383 </r>
       <r>    -0.8610     0.1694     0.0581 </r>
       <r>    -0.7442     0.1289     0.0731 </r>
       <r>    -0.6275     0.1684     0.0928 </r>
       <r>    -0.5108     0.3261     0.1308 </r>
       <r>    -0.3940     0.4167     0.1795 </r>
       <r>    -0.2773     0.2877     0.2131 </r>
       <r>    -0.1605     0.1170     0.2267 </r>
       <r>    -0.0438     0.1791     0.2476 </r>
       <r>     0.0729     0.3900     0.2931 </r>
       <r>     0.1897     0.5007     0.3516 </r>
       <r>     0.3064     0.4811     0.4078 </r>
       <r>     0.4232     0.3891     0.4532 </r>
       <r>     0.5399     0.2809     0.4860 </r>
       <r>     0.6566     0.3880     0.5313 </r>
       <r>     0.7734     0.6401     0.6060 </r>
       <r>     0.8901     0.5404     0.6691 </r>
       <r>     1.0069     0.2136     0.6940 </r>
       <r>     1.1236     0.3064     0.7298 </r>
       <r>     1.2403     0.6740     0.8085 </r>
       <r>     1.3571     0.7733     0.8987 </r>
       <r>     1.4738     0.6255     0.9718 </r>
       <r>     1.5906     0.6180     1.0439 </r>
       <r>     1.7073     0.8552     1.1437 </r>
       <r>     1.8240     0.7733     1.2340 </r>
       <r>     1.9408     0.3510     1.2750 </r>
       <r>     2.0575     0.2898     1.3088 </r>
       <r>     2.1743     0.7512     1.3965 </r>
       <r>     2.2910     1.2948     1.5477 </r>
       <r>     2.4077     1.2771     1.6968 </r>
       <r>     2.5245     1.0130     1.8150 </r>
       <r>     2.6412     0.9913     1.9307 </r>
       <r>     2.7580     0.9394     2.0404 </r>
       <r>     2.8747     0.9752     2.1543 </r>
       <r>     2.9914     1.6372     2.3454 </r>
       <r>     3.1082     2.4790     2.6348 </r>
       <r>     3.2249     2.8562     2.9682 </r>
       <r>     3.3417     3.1460     3.3355 </r>
       <r>     3.4584     3.6952     3.7669 </r>
       <r>     3.5752     4.4309     4.2841 </r>
       <r>     3.6919     5.0007     4.8679 </r>
       <r>     3.8086     4.8354     5.4324 </r>
       <r>     3.9254     5.5605     6.0815 </r>
       <r>     4.0421     7.1902     6.9209 </r>
       <r>     4.1589     8.1443     7.8717 </r>
       <r>     4.2756     8.4268     8.8554 </r>
       <r>     4.3923     8.0600     9.7964 </r>
       <r>     4.5091     7.4605    10.6673 </r>
       <r>     4.6258     7.3525    11.5256 </r>
       <r>     4.7426     7.4027    12.3898 </r>
       <r>     4.8593     7.7195    13.2910 </r>
       <r>     4.9760     9.0893    14.3521 </r>
       <r>     5.0928    10.8738    15.6215 </r>
       <r>     5.2095    11.0482    16.9113 </r>
       <r>     5.3263    11.4406    18.2469 </r>
       <r>     5.4430    13.6353    19.8387 </r>
       <r>     5.5597    15.2624    21.6204 </r>
       <r>     5.6765    14.4995    23.3131 </r>
       <r>     5.7932    11.7685    24.6869 </r>
       <r>     5.9100     9.4574    25.7910 </r>
       <r>     6.0267     9.4580    26.8951 </r>
       <r>     6.1434    10.8498    28.1617 </r>
       <r>     6.2602    12.0729    29.5711 </r>
       <r>     6.3769    12.6051    31.0427 </r>
       <r>     6.4937    11.8319    32.4239 </r>
       <r>     6.6104    10.9984    33.7079 </r>
       <r>     6.7271    11.3823    35.0367 </r>
       <r>     6.8439    13.4732    36.6095 </r>
       <r>     6.9606    16.9110    38.5837 </r>
       <r>     7.0774    16.3985    40.4981 </r>
       <r>     7.1941    10.4037    41.7126 </r>
       <r>     7.3108     4.4213    42.2288 </r>
       <r>     7.4276     1.2997    42.3805 </r>
       <r>     7.5443     0.2965    42.4151 </r>
       <r>     7.6611     0.6941    42.4961 </r>
       <r>     7.7778     1.7830    42.7043 </r>
       <r>     7.8946     2.0828    42.9474 </r>
       <r>     8.0113     1.4615    43.1181 </r>
       <r>     8.1280     0.9372    43.2275 </r>
       <r>     8.2448     0.9209    43.3350 </r>
       <r>     8.3615     1.3633    43.4941 </r>
       <r>     8.4783     1.6419    43.6858 </r>
       <r>     8.5950     1.3342    43.8416 </r>
       <r>     8.7117     0.9924    43.9574 </r>
       <r>     8.8285     1.0439    44.0793 </r>
       <r>     8.9452     1.0318    44.1997 </r>
       <r>     9.0620     0.7239    44.2842 </r>
       <r>     9.1787     0.5888    44.3530 </r>
       <r>     9.2954     0.9991    44.4696 </r>
       <r>     9.4122     1.4560    44.6396 </r>
       <r>     9.5289     1.5292    44.8181 </r>
       <r>     9.6457     1.6206    45.0073 </r>
       <r>     9.7624     1.5610    45.1895 </r>
       <r>     9.8791     0.8802    45.2923 </r>
       <r>     9.9959     0.3591    45.3342 </r>
       <r>    10.1126     0.5379    45.3970 </r>
       <r>    10.2294     0.8361    45.4946 </r>
       <r>    10.3461     0.6961    45.5759 </r>
       <r>    10.4628     0.6434    45.6510 </r>
       <r>    10.5796     1.0583    45.7745 </r>
       <r>    10.6963     1.4121    45.9394 </r>
       <r>    10.8131     1.4688    46.1108 </r>
       <r>    10.9298     1.2484    46.2566 </r>
       <r>    11.0465     0.8085    46.3510 </r>
       <r>    11.1633     0.6354    46.4251 </r>
       <r>    11.2800     1.0990    46.5534 </r>
       <r>    11.3968     1.0900    46.6807 </r>
       <r>    11.5135     0.4260    46.7304 </r>
       <r>    11.6302     0.2527    46.7599 </r>
       <r>    11.7470     0.3748    46.8037 </r>
       <r>    11.8637     0.4893    46.8608 </r>
       <r>    11.9805     0.8512    46.9602 </r>
       <r>    12.0972     1.0218    47.0794 </r>
       <r>    12.2140     0.6227    47.1521 </r>
       <r>    12.3307     0.4952    47.2099 </r>
       <r>    12.4474     1.0216    47.3292 </r>
       <r>    12.5642     1.1150    47.4594 </r>
       <r>    12.6809     0.4894    47.5165 </r>
       <r>    12.7977     0.0912    47.5272 </r>
       <r>    12.9144     0.0818    47.5367 </r>
       <r>    13.0311     0.4008    47.5835 </r>
       <r>    13.1479     1.2402    47.7283 </r>
       <r>    13.2646     1.8160    47.9403 </r>
       <r>    13.3814     1.2829    48.0900 </r>
       <r>    13.4981     0.6719    48.1685 </r>
       <r>    13.6148     0.6259    48.2415 </r>
       <r>    13.7316     0.7457    48.3286 </r>
       <r>    13.8483     1.1380    48.4614 </r>
       <r>    13.9651     1.4480    48.6305 </r>
       <r>    14.0818     1.2063    48.7713 </r>
       <r>    14.1985     1.0637    48.8955 </r>
       <r>    14.3153     1.2938    49.0465 </r>
       <r>    14.4320     1.4742    49.2186 </r>
       <r>    14.5488     1.1844    49.3569 </r>
       <r>    14.6655     0.5429    49.4203 </r>
       <r>    14.7822     0.5352    49.4827 </r>
       <r>    14.8990     1.3619    49.6417 </r>
       <r>    15.0157     1.7938    49.8511 </r>
       <r>    15.1325     1.0692    49.9759 </r>
       <r>    15.2492     0.5808    50.0438 </r>
       <r>    15.3659     1.0733    50.1691 </r>
       <r>    15.4827     1.1982    50.3089 </r>
       <r>    15.5994     0.5147    50.3690 </r>
       <r>    15.7162     0.3338    50.4080 </r>
       <r>    15.8329     0.5884    50.4767 </r>
       <r>    15.9496     0.6725    50.5552 </r>
       <r>    16.0664     0.8396    50.6532 </r>
       <r>    16.1831     1.0560    50.7765 </r>
       <r>    16.2999     1.4312    50.9436 </r>
       <r>    16.4166     1.5338    51.1226 </r>
       <r>    16.5334     1.0933    51.2503 </r>
       <r>    16.6501     0.9884    51.3656 </r>
       <r>    16.7668     1.1978    51.5055 </r>
       <r>    16.8836     1.4016    51.6691 </r>
       <r>    17.0003     1.2745    51.8179 </r>
       <r>    17.1171     0.6675    51.8958 </r>
       <r>    17.2338     0.5307    51.9578 </r>
       <r>    17.3505     0.9104    52.0640 </r>
       <r>    17.4673     0.9836    52.1789 </r>
       <r>    17.5840     0.8188    52.2744 </r>
       <r>    17.7008     1.1659    52.4106 </r>
       <r>    17.8175     1.9540    52.6387 </r>
       <r>    17.9342     2.1886    52.8942 </r>
       <r>    18.0510     1.7125    53.0941 </r>
       <r>    18.1677     1.2051    53.2348 </r>
       <r>    18.2845     1.0951    53.3626 </r>
       <r>    18.4012     1.3131    53.5159 </r>
       <r>    18.5179     1.6116    53.7041 </r>
       <r>    18.6347     2.0747    53.9463 </r>
       <r>    18.7514     1.9856    54.1781 </r>
       <r>    18.8682     1.4790    54.3507 </r>
       <r>    18.9849     1.2377    54.4952 </r>
       <r>    19.1016     0.7676    54.5848 </r>
       <r>    19.2184     0.5177    54.6453 </r>
       <r>    19.3351     0.8325    54.7425 </r>
       <r>    19.4519     1.2718    54.8909 </r>
       <r>    19.5686     1.6771    55.0867 </r>
       <r>    19.6853     1.7795    55.2944 </r>
       <r>    19.8021     1.4527    55.4640 </r>
       <r>    19.9188     1.1059    55.5931 </r>
       <r>    20.0356     1.0254    55.7128 </r>
       <r>    20.1523     1.1048    55.8418 </r>
       <r>    20.2690     1.6065    56.0294 </r>
       <r>    20.3858     2.0113    56.2642 </r>
       <r>    20.5025     1.7484    56.4683 </r>
       <r>    20.6193     1.6572    56.6617 </r>
       <r>    20.7360     2.3303    56.9338 </r>
       <r>    20.8527     2.1730    57.1875 </r>
       <r>    20.9695     0.8901    57.2914 </r>
       <r>    21.0862     0.2680    57.3226 </r>
       <r>    21.2030     0.6210    57.3951 </r>
       <r>    21.3197     1.1848    57.5335 </r>
       <r>    21.4365     1.6168    57.7222 </r>
       <r>    21.5532     1.9443    57.9492 </r>
       <r>    21.6699     1.8364    58.1636 </r>
       <r>    21.7867     1.4087    58.3280 </r>
       <r>    21.9034     0.9378    58.4375 </r>
       <r>    22.0202     0.8601    58.5379 </r>
       <r>    22.1369     1.0995    58.6663 </r>
       <r>    22.2536     0.9489    58.7770 </r>
       <r>    22.3704     0.7100    58.8599 </r>
       <r>    22.4871     0.8654    58.9609 </r>
       <r>    22.6039     0.8731    59.0629 </r>
       <r>    22.7206     0.5451    59.1265 </r>
       <r>    22.8373     0.3195    59.1638 </r>
       <r>    22.9541     0.1632    59.1829 </r>
       <r>    23.0708     0.1841    59.2043 </r>
       <r>    23.1876     0.4642    59.2585 </r>
       <r>    23.3043     0.4433    59.3103 </r>
       <r>    23.4210     0.1199    59.3243 </r>
       <r>    23.5378    -0.0232    59.3216 </r>
       <r>    23.6545    -0.0163    59.3197 </r>
       <r>    23.7713    -0.0128    59.3182 </r>
       <r>    23.8880    -0.0203    59.3158 </r>
       <r>    24.0047     0.0599    59.3228 </r>
       <r>    24.1215     0.3359    59.3620 </r>
       <r>    24.2382     0.6332    59.4359 </r>
       <r>    24.3550     0.5474    59.4998 </r>
       <r>    24.4717     0.1723    59.5199 </r>
       <r>    24.5884     0.0675    59.5278 </r>
       <r>    24.7052     0.2245    59.5540 </r>
       <r>    24.8219     0.2127    59.5789 </r>
       <r>    24.9387     0.0431    59.5839 </r>
       <r>    25.0554    -0.0277    59.5807 </r>
       <r>    25.1721     0.0761    59.5895 </r>
       <r>    25.2889     0.3205    59.6270 </r>
       <r>    25.4056     0.3936    59.6729 </r>
       <r>    25.5224     0.1815    59.6941 </r>
       <r>    25.6391     0.0080    59.6950 </r>
       <r>    25.7559    -0.0244    59.6922 </r>
       <r>    25.8726    -0.0307    59.6886 </r>
       <r>    25.9893     0.0425    59.6936 </r>
       <r>    26.1061     0.3427    59.7336 </r>
       <r>    26.2228     0.5287    59.7953 </r>
       <r>    26.3396     0.2689    59.8267 </r>
       <r>    26.4563     0.0108    59.8279 </r>
       <r>    26.5730    -0.0243    59.8251 </r>
       <r>    26.6898    -0.0100    59.8239 </r>
       <r>    26.8065    -0.0136    59.8223 </r>
       <r>    26.9233     0.0200    59.8247 </r>
       <r>    27.0400     0.1686    59.8444 </r>
       <r>    27.1567     0.2648    59.8753 </r>
       <r>    27.2735     0.1373    59.8913 </r>
       <r>    27.3902     0.0064    59.8920 </r>
       <r>    27.5070    -0.0121    59.8906 </r>
       <r>    27.6237    -0.0039    59.8902 </r>
       <r>    27.7404    -0.0069    59.8894 </r>
       <r>    27.8572    -0.0124    59.8879 </r>
       <r>    27.9739     0.0507    59.8939 </r>
       <r>    28.0907     0.2146    59.9189 </r>
       <r>    28.2074     0.2475    59.9478 </r>
       <r>    28.3241     0.0894    59.9582 </r>
       <r>    28.4409    -0.0070    59.9574 </r>
       <r>    28.5576    -0.0093    59.9563 </r>
       <r>    28.6744    -0.0017    59.9561 </r>
       <r>    28.7911    -0.0001    59.9561 </r>
       <r>    28.9078    -0.0000    59.9561 </r>
       <r>    29.0246    -0.0000    59.9561 </r>
       <r>    29.1413    -0.0001    59.9561 </r>
       <r>    29.2581    -0.0011    59.9560 </r>
       <r>    29.3748    -0.0062    59.9552 </r>
       <r>    29.4915    -0.0047    59.9547 </r>
       <r>    29.6083     0.0596    59.9616 </r>
       <r>    29.7250     0.1650    59.9809 </r>
       <r>    29.8418     0.1430    59.9976 </r>
       <r>    29.9585     0.0338    60.0016 </r>
       <r>    30.0753    -0.0083    60.0006 </r>
       <r>    30.1920    -0.0044    60.0001 </r>
       <r>    30.3087    -0.0006    60.0000 </r>
       <r>    30.4255    -0.0000    60.0000 </r>
       <r>    30.5422    -0.0000    60.0000 </r>
       <r>    30.6590    -0.0000    60.0000 </r>
       <r>    30.7757    -0.0000    60.0000 </r>
       <r>    30.8924    -0.0000    60.0000 </r>
       <r>    31.0092    -0.0000    60.0000 </r>
       <r>    31.1259     0.0000    60.0000 </r>
       <r>    31.2427     0.0000    60.0000 </r>
       <r>    31.3594     0.0000    60.0000 </r>
       <r>    31.4761     0.0000    60.0000 </r>
       <r>    31.5929     0.0000    60.0000 </r>
       <r>    31.7096     0.0000    60.0000 </r>
      </set>
     </set>
    </array>
   </total>
  </dos>
 </calculation>
 <structure name="finalpos" >
  <crystal>
   <varray name="basis" >
    <v>       3.50955391       0.00000000       0.00000000 </v>
    <v>       0.00000000       3.50955391       0.00000000 </v>
    <v>       0.00000000       0.00000000       3.50955391 </v>
   </varray>
   <i name="volume">     43.22706559 </i>
   <varray name="rec_basis" >
    <v>       0.28493650       0.00000000       0.00000000 </v>
    <v>       0.00000000       0.28493650       0.00000000 </v>
    <v>       0.00000000       0.00000000       0.28493650 </v>
   </varray>
  </crystal>
  <varray name="positions" >
   <v>       0.00000000       0.00000000       0.00000000 </v>
   <v>       0.50000000       0.50000000       0.00000000 </v>
   <v>       0.50000000       0.00000000       0.50000000 </v>
   <v>       0.00000000       0.50000000       0.50000000 </v>
  </varray>
 </structure>
</modeling>
