unknown system                          
   1.00000000000000     
     3.866000    0.000000    0.000000
     0.000000    3.866000    0.000000
     0.000000    0.000000    3.866000
   Pd   Ir   Pt   Cu
     1     1     1     1
Direct
  0.000000  0.000000  0.000000
  0.500000  0.500000  0.000000
  0.500000  0.000000  0.500000
  0.000000  0.500000  0.500000
 
   32   32   32
  359.58      343.10      300.83      247.79      195.05      145.62      100.15      62.481      37.335      24.318    
  17.395      13.238      10.988      9.9444      9.3827      8.9020      8.6732      8.9020      9.3827      9.9444    
  10.988      13.238      17.395      24.318      37.335      62.481      100.15      145.62      195.05      247.79    
  300.83      343.10      343.23      327.59      287.40      236.77      186.22      138.83      95.455      59.794    
  36.164      23.922      17.274      13.282      11.120      10.111      9.5650      9.1025      8.8838      9.1025    
  9.5650      10.111      11.120      13.282      17.274      23.922      36.164      59.794      95.455      138.83    
  186.22      236.77      287.40      327.59      300.67      287.15      252.19      207.68      162.81      120.83    
  83.079      52.787      33.145      22.876      16.964      13.431      11.514      10.608      10.114      9.7071    
  9.5180      9.7071      10.114      10.608      11.514      13.431      16.964      22.876      33.145      52.787    
  83.079      120.83      162.81      207.68      252.19      287.15      245.98      235.00      206.40      169.47    
  131.93      97.230      67.095      43.943      29.410      21.492      16.624      13.755      12.213      11.486    
  11.100      10.794      10.655      10.794      11.100      11.486      12.213      13.755      16.624      21.492    
  29.410      43.943      67.095      97.230      131.93      169.47      206.40      235.00      190.67      182.11    
  159.61      130.27      100.48      73.687      51.648      35.711      25.985      20.143      16.489      14.418    
  13.373      12.944      12.769      12.638      12.574      12.638      12.769      12.944      13.373      14.418    
  16.489      20.143      25.985      35.711      51.648      73.687      100.48      130.27      159.61      182.11    
  139.61      133.25      116.49      94.611      72.700      53.810      39.276      29.416      23.257      19.194    
  16.830      15.675      15.293      15.358      15.575      15.738      15.791      15.738      15.575      15.358    
  15.293      15.675      16.830      19.194      23.257      29.416      39.276      53.810      72.700      94.611    
  116.49      133.25      94.709      90.454      79.256      64.773      50.627      39.014      30.636      25.081    
  21.257      18.936      17.919      17.836      18.358      19.198      20.082      20.746      20.991      20.746    
  20.082      19.198      18.358      17.836      17.919      18.936      21.257      25.081      30.636      39.014    
  50.627      64.773      79.256      90.454      59.128      56.747      50.525      42.611      35.117      29.221    
  25.033      22.024      20.194      19.575      19.989      21.182      23.000      25.253      27.518      29.221    
  29.855      29.221      27.518      25.253      23.000      21.182      19.989      19.575      20.194      22.024    
  25.033      29.221      35.117      42.611      50.525      56.747      35.827      34.798      32.129      28.785    
  25.652      23.095      21.183      20.160      20.170      21.206      23.186      26.196      30.197      34.812    
  39.269      42.549      43.762      42.549      39.269      34.812      30.197      26.196      23.186      21.206    
  20.170      20.160      21.183      23.095      25.652      28.785      32.129      34.798      23.518      23.172    
  22.255      21.032      19.831      18.990      18.797      19.472      21.136      23.849      27.900      33.425    
  40.219      47.646      54.580      59.590      61.427      59.590      54.580      47.646      40.219      33.425    
  27.900      23.849      21.136      19.472      18.797      18.990      19.831      21.032      22.255      23.172    
  16.709      16.615      16.378      16.135      16.096      16.516      17.658      19.754      22.963      27.709    
  34.283      42.542      52.006      61.847      70.779      77.151      79.477      77.151      70.779      61.847    
  52.006      42.542      34.283      27.709      22.963      19.754      17.658      16.516      16.096      16.135    
  16.378      16.615      12.509      12.570      12.765      13.156      13.890      15.206      17.400      20.737    
  25.673      32.799      42.019      52.702      64.090      75.389      85.458      92.638      95.269      92.638    
  85.458      75.389      64.090      52.702      42.019      32.799      25.673      20.737      17.400      15.206    
  13.890      13.156      12.765      12.570      10.142      10.286      10.717      11.469      12.687      14.647    
  17.706      22.256      29.180      38.866      50.610      63.197      75.731      87.757      98.516      106.35    
  109.26      106.35      98.516      87.757      75.731      63.197      50.610      38.866      29.180      22.256    
  17.706      14.647      12.687      11.469      10.717      10.286      8.9557      9.1334      9.6639      10.592    
  12.099      14.529      18.311      24.131      33.149      45.377      59.422      73.550      86.953      99.751    
  111.60      120.57      123.99      120.57      111.60      99.751      86.953      73.550      59.422      45.377    
  33.149      24.131      18.311      14.529      12.099      10.592      9.6639      9.1334      8.2700      8.4636    
  9.0460      10.080      11.789      14.586      18.975      26.008      36.948      51.426      67.448      82.939    
  97.360      111.46      125.16      135.95      140.14      135.95      125.16      111.46      97.360      82.939    
  67.448      51.426      36.948      26.008      18.975      14.586      11.789      10.080      9.0460      8.4636    
  7.7178      7.9292      8.5660      9.6981      11.573      14.642      19.481      27.415      39.739      55.809    
  73.238      89.794      105.23      120.77      136.41      149.02      153.96      149.02      136.41      120.77    
  105.23      89.794      73.238      55.809      39.739      27.415      19.481      14.642      11.573      9.6981    
  8.5660      7.9292      7.4681      7.6894      8.3547      9.5344      11.481      14.657      19.668      27.939    
  40.770      57.421      75.370      92.344      108.22      124.40      140.89      154.27      159.54      154.27    
  140.89      124.40      108.22      92.344      75.370      57.421      40.770      27.939      19.668      14.657    
  11.481      9.5344      8.3547      7.6894      7.7178      7.9292      8.5660      9.6981      11.573      14.642    
  19.481      27.415      39.739      55.809      73.238      89.794      105.23      120.77      136.41      149.02    
  153.96      149.02      136.41      120.77      105.23      89.794      73.238      55.809      39.739      27.415    
  19.481      14.642      11.573      9.6981      8.5660      7.9292      8.2700      8.4636      9.0460      10.080    
  11.789      14.586      18.975      26.008      36.948      51.426      67.448      82.939      97.360      111.46    
  125.16      135.95      140.14      135.95      125.16      111.46      97.360      82.939      67.448      51.426    
  36.948      26.008      18.975      14.586      11.789      10.080      9.0460      8.4636      8.9557      9.1334    
  9.6639      10.592      12.099      14.529      18.311      24.131      33.149      45.377      59.422      73.550    
  86.953      99.751      111.60      120.57      123.99      120.57      111.60      99.751      86.953      73.550    
  59.422      45.377      33.149      24.131      18.311      14.529      12.099      10.592      9.6639      9.1334    
  10.142      10.286      10.717      11.469      12.687      14.647      17.706      22.256      29.180      38.866    
  50.610      63.197      75.731      87.757      98.516      106.35      109.26      106.35      98.516      87.757    
  75.731      63.197      50.610      38.866      29.180      22.256      17.706      14.647      12.687      11.469    
  10.717      10.286      12.509      12.570      12.765      13.156      13.890      15.206      17.400      20.737    
  25.673      32.799      42.019      52.702      64.090      75.389      85.458      92.638      95.269      92.638    
  85.458      75.389      64.090      52.702      42.019      32.799      25.673      20.737      17.400      15.206    
  13.890      13.156      12.765      12.570      16.709      16.615      16.378      16.135      16.096      16.516    
  17.658      19.754      22.963      27.709      34.283      42.542      52.006      61.847      70.779      77.151    
  79.477      77.151      70.779      61.847      52.006      42.542      34.283      27.709      22.963      19.754    
  17.658      16.516      16.096      16.135      16.378      16.615      23.518      23.172      22.255      21.032    
  19.831      18.990      18.797      19.472      21.136      23.849      27.900      33.425      40.219      47.646    
  54.580      59.590      61.427      59.590      54.580      47.646      40.219      33.425      27.900      23.849    
  21.136      19.472      18.797      18.990      19.831      21.032      22.255      23.172      35.827      34.798    
  32.129      28.785      25.652      23.095      21.183      20.160      20.170      21.206      23.186      26.196    
  30.197      34.812      39.269      42.549      43.762      42.549      39.269      34.812      30.197      26.196    
  23.186      21.206      20.170      20.160      21.183      23.095      25.652      28.785      32.129      34.798    
  59.128      56.747      50.525      42.611      35.117      29.221      25.033      22.024      20.194      19.575    
  19.989      21.182      23.000      25.253      27.518      29.221      29.855      29.221      27.518      25.253    
  23.000      21.182      19.989      19.575      20.194      22.024      25.033      29.221      35.117      42.611    
  50.525      56.747      94.709      90.454      79.256      64.773      50.627      39.014      30.636      25.081    
  21.257      18.936      17.919      17.836      18.358      19.198      20.082      20.746      20.991      20.746    
  20.082      19.198      18.358      17.836      17.919      18.936      21.257      25.081      30.636      39.014    
  50.627      64.773      79.256      90.454      139.61      133.25      116.49      94.611      72.700      53.810    
  39.276      29.416      23.257      19.194      16.830      15.675      15.293      15.358      15.575      15.738    
  15.791      15.738      15.575      15.358      15.293      15.675      16.830      19.194      23.257      29.416    
  39.276      53.810      72.700      94.611      116.49      133.25      190.67      182.11      159.61      130.27    
  100.48      73.687      51.648      35.711      25.985      20.143      16.489      14.418      13.373      12.944    
  12.769      12.638      12.574      12.638      12.769      12.944      13.373      14.418      16.489      20.143    
  25.985      35.711      51.648      73.687      100.48      130.27      159.61      182.11      245.98      235.00    
  206.40      169.47      131.93      97.230      67.095      43.943      29.410      21.492      16.624      13.755    
  12.213      11.486      11.100      10.794      10.655      10.794      11.100      11.486      12.213      13.755    
  16.624      21.492      29.410      43.943      67.095      97.230      131.93      169.47      206.40      235.00    
  300.67      287.15      252.19      207.68      162.81      120.83      83.079      52.787      33.145      22.876    
  16.964      13.431      11.514      10.608      10.114      9.7071      9.5180      9.7071      10.114      10.608    
  11.514      13.431      16.964      22.876      33.145      52.787      83.079      120.83      162.81      207.68    
  252.19      287.15      343.23      327.59      287.40      236.77      186.22      138.83      95.455      59.794    
  36.164      23.922      17.274      13.282      11.120      10.111      9.5650      9.1025      8.8838      9.1025    
  9.5650      10.111      11.120      13.282      17.274      23.922      36.164      59.794      95.455      138.83    
  186.22      236.77      287.40      327.59      343.49      327.92      287.86      237.32      186.75      139.22    
  95.670      59.871      36.172      23.912      17.265      13.280      11.128      10.130      9.5940      9.1385    
  8.9223      9.1385      9.5940      10.130      11.128      13.280      17.265      23.912      36.172      59.871    
  95.670      139.22      186.75      237.32      287.86      327.92      328.43      313.61      275.41      227.04    
  178.47      132.83      91.252      57.352      35.077      23.534      17.147      13.323      11.255      10.291    
  9.7706      9.3327      9.1262      9.3327      9.7706      10.291      11.255      13.323      17.147      23.534    
  35.077      57.352      91.252      132.83      178.47      227.04      275.41      313.61      289.00      276.08    
  242.61      199.78      156.42      115.85      79.597      50.779      32.251      22.529      16.848      13.465    
  11.635      10.771      10.302      9.9179      9.7399      9.9179      10.302      10.771      11.635      13.465    
  16.848      22.529      32.251      50.779      79.597      115.85      156.42      199.78      242.61      276.08    
  237.70      227.12      199.46      163.64      127.15      93.499      64.511      42.471      28.742      21.190    
  16.518      13.776      12.308      11.619      11.255      10.969      10.839      10.969      11.255      11.619    
  12.308      13.776      16.518      21.190      28.742      42.471      64.511      93.499      127.15      163.64    
  199.46      227.12      184.94      176.62      154.73      126.13      97.084      71.087      49.891      34.720    
  25.497      19.884      16.384      14.413      13.424      13.025      12.866      12.750      12.692      12.750    
  12.866      13.025      13.424      14.413      16.384      19.884      25.497      34.720      49.891      71.087    
  97.084      126.13      154.73      176.62      135.48      129.29      112.97      91.665      70.363      52.091    
  38.151      28.765      22.866      18.964      16.710      15.620      15.273      15.352      15.575      15.744    
  15.799      15.744      15.575      15.352      15.273      15.620      16.710      18.964      22.866      28.765    
  38.151      52.091      70.363      91.665      112.97      129.29      91.748      87.625      76.779      62.761    
  49.102      37.940      29.932      24.611      20.926      18.710      17.756      17.701      18.228      19.057    
  19.921      20.568      20.806      20.568      19.921      19.057      18.228      17.701      17.756      18.710    
  20.926      24.611      29.932      37.940      49.102      62.761      76.779      87.625      57.254      54.966    
  48.990      41.397      34.220      28.580      24.553      21.644      19.896      19.324      19.751      20.928    
  22.691      24.859      27.032      28.662      29.269      28.662      27.032      24.859      22.691      20.928    
  19.751      19.324      19.896      21.644      24.553      28.580      34.220      41.397      48.990      54.966    
  34.872      33.891      31.346      28.154      25.152      22.672      20.820      19.844      19.875      20.904    
  22.837      25.745      29.591      34.014      38.276      41.410      42.567      41.410      38.276      34.014    
  29.591      25.745      22.837      20.904      19.875      19.844      20.820      22.672      25.152      28.154    
  31.346      33.891      23.091      22.757      21.867      20.675      19.508      18.697      18.519      19.187    
  20.820      23.464      27.385      32.717      39.258      46.386      53.021      57.804      59.556      57.804    
  53.021      46.386      39.258      32.717      27.385      23.464      20.820      19.187      18.519      18.697    
  19.508      20.675      21.867      22.757      16.488      16.396      16.167      15.932      15.899      16.312    
  17.429      19.475      22.603      27.207      33.585      41.595      50.748      60.218      68.765      74.837    
  77.049      74.837      68.765      60.218      50.748      41.595      33.585      27.207      22.603      19.475    
  17.429      16.312      15.899      15.932      16.167      16.396      12.442      12.500      12.687      13.064    
  13.777      15.058      17.194      20.449      25.243      32.176      41.176      51.612      62.688      73.582    
  83.192      89.990      92.471      89.990      83.192      73.582      62.688      51.612      41.176      32.176    
  25.243      20.449      17.194      15.058      13.777      13.064      12.687      12.500      10.186      10.323    
  10.732      11.452      12.628      14.530      17.509      21.938      28.671      38.141      49.687      62.081    
  74.339      85.923      96.111      103.43      106.14      103.43      96.111      85.923      74.339      62.081    
  49.687      38.141      28.671      21.938      17.509      14.530      12.628      11.452      10.732      10.323    
  9.0784      9.2447      9.7438      10.626      12.074      14.430      18.114      23.772      32.563      44.575    
  58.473      72.480      85.630      97.897      108.98      117.24      120.36      117.24      108.98      97.897    
  85.630      72.480      58.473      44.575      32.563      23.772      18.114      14.430      12.074      10.626    
  9.7438      9.2447      8.4600      8.6388      9.1804      10.155      11.793      14.500      18.774      25.609    
  36.297      50.570      66.498      81.922      96.072      109.49      122.16      131.98      135.76      131.98    
  122.16      109.49      96.072      81.922      66.498      50.570      36.297      25.609      18.774      14.500    
  11.793      10.155      9.1804      8.6388      7.9674      8.1609      8.7485      9.8103      11.600      14.569    
  19.276      26.987      39.043      54.918      72.288      88.804      103.92      118.63      133.00      144.42    
  148.87      144.42      133.00      118.63      103.92      88.804      72.288      54.918      39.043      26.987    
  19.276      14.569      11.600      9.8103      8.7485      8.1609      7.7438      7.9457      8.5582      9.6623    
  11.518      14.589      19.462      27.501      40.059      56.517      74.419      91.359      106.90      122.18    
  137.30      149.41      154.14      149.41      137.30      122.18      106.90      91.359      74.419      56.517    
  40.059      27.501      19.462      14.589      11.518      9.6623      8.5582      7.9457      7.9674      8.1609    
  8.7485      9.8103      11.600      14.569      19.276      26.987      39.043      54.918      72.288      88.804    
  103.92      118.63      133.00      144.42      148.87      144.42      133.00      118.63      103.92      88.804    
  72.288      54.918      39.043      26.987      19.276      14.569      11.600      9.8103      8.7485      8.1609    
  8.4600      8.6388      9.1804      10.155      11.793      14.500      18.774      25.609      36.297      50.570    
  66.498      81.922      96.072      109.49      122.16      131.98      135.76      131.98      122.16      109.49    
  96.072      81.922      66.498      50.570      36.297      25.609      18.774      14.500      11.793      10.155    
  9.1804      8.6388      9.0784      9.2447      9.7438      10.626      12.074      14.430      18.114      23.772    
  32.563      44.575      58.473      72.480      85.630      97.897      108.98      117.24      120.36      117.24    
  108.98      97.897      85.630      72.480      58.473      44.575      32.563      23.772      18.114      14.430    
  12.074      10.626      9.7438      9.2447      10.186      10.323      10.732      11.452      12.628      14.530    
  17.509      21.938      28.671      38.141      49.687      62.081      74.339      85.923      96.111      103.43    
  106.14      103.43      96.111      85.923      74.339      62.081      49.687      38.141      28.671      21.938    
  17.509      14.530      12.628      11.452      10.732      10.323      12.442      12.500      12.687      13.064    
  13.777      15.058      17.194      20.449      25.243      32.176      41.176      51.612      62.688      73.582    
  83.192      89.990      92.471      89.990      83.192      73.582      62.688      51.612      41.176      32.176    
  25.243      20.449      17.194      15.058      13.777      13.064      12.687      12.500      16.488      16.396    
  16.167      15.932      15.899      16.312      17.429      19.475      22.603      27.207      33.585      41.595    
  50.748      60.218      68.765      74.837      77.049      74.837      68.765      60.218      50.748      41.595    
  33.585      27.207      22.603      19.475      17.429      16.312      15.899      15.932      16.167      16.396    
  23.091      22.757      21.867      20.675      19.508      18.697      18.519      19.187      20.820      23.464    
  27.385      32.717      39.258      46.386      53.021      57.804      59.556      57.804      53.021      46.386    
  39.258      32.717      27.385      23.464      20.820      19.187      18.519      18.697      19.508      20.675    
  21.867      22.757      34.872      33.891      31.346      28.154      25.152      22.672      20.820      19.844    
  19.875      20.904      22.837      25.745      29.591      34.014      38.276      41.410      42.567      41.410    
  38.276      34.014      29.591      25.745      22.837      20.904      19.875      19.844      20.820      22.672    
  25.152      28.154      31.346      33.891      57.254      54.966      48.990      41.397      34.220      28.580    
  24.553      21.644      19.896      19.324      19.751      20.928      22.691      24.859      27.032      28.662    
  29.269      28.662      27.032      24.859      22.691      20.928      19.751      19.324      19.896      21.644    
  24.553      28.580      34.220      41.397      48.990      54.966      91.748      87.625      76.779      62.761    
  49.102      37.940      29.932      24.611      20.926      18.710      17.756      17.701      18.228      19.057    
  19.921      20.568      20.806      20.568      19.921      19.057      18.228      17.701      17.756      18.710    
  20.926      24.611      29.932      37.940      49.102      62.761      76.779      87.625      135.48      129.29    
  112.97      91.665      70.363      52.091      38.151      28.765      22.866      18.964      16.710      15.620    
  15.273      15.352      15.575      15.744      15.799      15.744      15.575      15.352      15.273      15.620    
  16.710      18.964      22.866      28.765      38.151      52.091      70.363      91.665      112.97      129.29    
  184.94      176.62      154.73      126.13      97.084      71.087      49.891      34.720      25.497      19.884    
  16.384      14.413      13.424      13.025      12.866      12.750      12.692      12.750      12.866      13.025    
  13.424      14.413      16.384      19.884      25.497      34.720      49.891      71.087      97.084      126.13    
  154.73      176.62      237.70      227.12      199.46      163.64      127.15      93.499      64.511      42.471    
  28.742      21.190      16.518      13.776      12.308      11.619      11.255      10.969      10.839      10.969    
  11.255      11.619      12.308      13.776      16.518      21.190      28.742      42.471      64.511      93.499    
  127.15      163.64      199.46      227.12      289.00      276.08      242.61      199.78      156.42      115.85    
  79.597      50.779      32.251      22.529      16.848      13.465      11.635      10.771      10.302      9.9179    
  9.7399      9.9179      10.302      10.771      11.635      13.465      16.848      22.529      32.251      50.779    
  79.597      115.85      156.42      199.78      242.61      276.08      328.43      313.61      275.41      227.04    
  178.47      132.83      91.252      57.352      35.077      23.534      17.147      13.323      11.255      10.291    
  9.7706      9.3327      9.1262      9.3327      9.7706      10.291      11.255      13.323      17.147      23.534    
  35.077      57.352      91.252      132.83      178.47      227.04      275.41      313.61      301.47      288.16    
  253.64      209.44      164.48      122.05      83.721      52.999      33.152      22.833      16.923      13.410    
  11.518      10.635      10.160      9.7673      9.5834      9.7673      10.160      10.635      11.518      13.410    
  16.923      22.833      33.152      52.999      83.721      122.05      164.48      209.44      253.64      288.16    
  289.54      276.78      243.61      201.01      157.58      116.69      80.033      50.919      32.252      22.496    
  16.817      13.447      11.632      10.781      10.323      9.9463      9.7711      9.9463      10.323      10.781    
  11.632      13.447      16.817      22.496      32.252      50.919      80.033      116.69      157.58      201.01    
  243.61      276.78      257.74      246.38      216.72      178.32      139.02      102.37      70.270      45.478    
  29.916      21.588      16.544      13.573      11.974      11.218      10.810      10.484      10.334      10.484    
  10.810      11.218      11.974      13.573      16.544      21.588      29.916      45.478      70.270      102.37    
  139.02      178.32      216.72      246.38      214.82      205.27      180.19      147.43      113.91      83.294    
  57.554      38.572      26.979      20.372      16.241      13.848      12.577      11.986      11.679      11.443    
  11.337      11.443      11.679      11.986      12.577      13.848      16.241      20.372      26.979      38.572    
  57.554      83.294      113.91      147.43      180.19      205.27      168.51      160.88      140.73      114.33    
  87.557      63.918      45.138      32.077      24.178      19.183      16.113      14.411      13.577      13.254    
  13.140      13.060      13.019      13.060      13.140      13.254      13.577      14.411      16.113      19.183    
  24.178      32.077      45.138      63.918      87.557      114.33      140.73      160.88      123.43      117.75    
  102.76      83.213      63.772      47.343      35.097      27.002      21.787      18.339      16.391      15.483    
  15.230      15.348      15.586      15.768      15.829      15.768      15.586      15.348      15.230      15.483    
  16.391      18.339      21.787      27.002      35.097      47.343      63.772      83.213      102.76      117.75    
  83.192      79.467      69.673      57.052      44.839      34.985      28.008      23.300      20.014      18.095    
  17.315      17.339      17.879      18.684      19.501      20.103      20.324      20.103      19.501      18.684    
  17.879      17.339      17.315      18.095      20.014      23.300      28.008      34.985      44.839      57.052    
  69.673      79.467      51.977      49.958      44.693      38.023      31.745      26.816      23.210      20.593    
  19.075      18.636      19.100      20.239      21.863      23.811      25.740      27.180      27.715      27.180    
  25.740      23.811      21.863      20.239      19.100      18.636      19.075      20.593      23.210      26.816    
  31.745      38.023      44.693      49.958      32.254      31.405      29.202      26.423      23.761      21.486    
  19.813      18.969      19.060      20.066      21.881      24.517      27.950      31.862      35.608      38.351    
  39.362      38.351      35.608      31.862      27.950      24.517      21.881      20.066      19.060      18.969    
  19.813      21.486      23.761      26.423      29.202      31.405      21.909      21.604      20.780      19.679    
  18.613      17.886      17.750      18.398      19.940      22.396      25.958      30.763      36.617      42.944    
  48.786      52.969      54.495      52.969      48.786      42.944      36.617      30.763      25.958      22.396    
  19.940      18.398      17.750      17.886      18.613      19.679      20.780      21.604      15.879      15.796    
  15.588      15.381      15.363      15.757      16.797      18.699      21.599      25.802      31.623      38.934    
  47.236      55.715      63.256      68.546      70.461      68.546      63.256      55.715      47.236      38.934    
  31.623      25.802      21.599      18.699      16.797      15.757      15.363      15.381      15.588      15.796    
  12.244      12.297      12.469      12.818      13.476      14.657      16.627      19.644      24.037      30.403    
  38.753      48.474      58.699      68.534      76.974      82.808      84.910      82.808      76.974      68.534    
  58.699      48.474      38.753      30.403      24.037      19.644      16.627      14.657      13.476      12.818    
  12.469      12.297      10.245      10.368      10.738      11.393      12.467      14.213      16.963      21.051    