unknown system                          
   1.00000000000000     
     3.866000    0.000000    0.000000
     0.000000    3.866000    0.000000
     0.000000    0.000000    3.866000
   Pd   Ir   Pt   Cu
     1     1     1     1
Direct
  0.000000  0.000000  0.000000
  0.500000  0.500000  0.000000
  0.500000  0.000000  0.500000
  0.000000  0.500000  0.500000
 
   32   32   32
 0.35958110511E+03 0.34310044387E+03 0.30082936485E+03 0.24779024386E+03 0.19504864518E+03
 0.14561861245E+03 0.10015296585E+03 0.62481411274E+02 0.37334854862E+02 0.24318082205E+02
 0.17395373029E+02 0.13237960445E+02 0.10987552236E+02 0.99444424417E+01 0.93827023886E+01
 0.89020139629E+01 0.86731929980E+01 0.89020139629E+01 0.93827023886E+01 0.99444424417E+01
 0.10987552236E+02 0.13237960445E+02 0.17395373029E+02 0.24318082205E+02 0.37334854862E+02
 0.62481411274E+02 0.10015296585E+03 0.14561861245E+03 0.19504864518E+03 0.24779024386E+03
 0.30082936485E+03 0.34310044387E+03 0.34322869914E+03 0.32758978705E+03 0.28739527774E+03
 0.23676617364E+03 0.18621926533E+03 0.13882863160E+03 0.95455467049E+02 0.59794023206E+02
 0.36163666392E+02 0.23922015078E+02 0.17274008165E+02 0.13282265816E+02 0.11119537248E+02
 0.10110852943E+02 0.95649977776E+01 0.91024936550E+01 0.88837562019E+01 0.91024936550E+01
 0.95649977776E+01 0.10110852943E+02 0.11119537248E+02 0.13282265816E+02 0.17274008165E+02
 0.23922015078E+02 0.36163666392E+02 0.59794023206E+02 0.95455467049E+02 0.13882863160E+03
 0.18621926533E+03 0.23676617364E+03 0.28739527774E+03 0.32758978705E+03 0.30067117580E+03
 0.28714939438E+03 0.25218871262E+03 0.20767967993E+03 0.16281164160E+03 0.12083351758E+03
 0.83078848870E+02 0.52787257121E+02 0.33144896443E+02 0.22875729820E+02 0.16964263991E+02
 0.13430890689E+02 0.11514312640E+02 0.10608073537E+02 0.10114040168E+02 0.97071374852E+01
 0.95180023772E+01 0.97071374852E+01 0.10114040168E+02 0.10608073537E+02 0.11514312640E+02
 0.13430890689E+02 0.16964263991E+02 0.22875729820E+02 0.33144896443E+02 0.52787257121E+02
 0.83078848870E+02 0.12083351758E+03 0.16281164160E+03 0.20767967993E+03 0.25218871262E+03
 0.28714939438E+03 0.24597500477E+03 0.23500409784E+03 0.20639588581E+03 0.16947051648E+03
 0.13193007889E+03 0.97230066458E+02 0.67094546347E+02 0.43943035736E+02 0.29410148001E+02
 0.21491916324E+02 0.16623803277E+02 0.13755240754E+02 0.12212798176E+02 0.11486303058E+02
 0.11099759444E+02 0.10794441921E+02 0.10654819512E+02 0.10794441921E+02 0.11099759444E+02
 0.11486303058E+02 0.12212798176E+02 0.13755240754E+02 0.16623803277E+02 0.21491916324E+02
 0.29410148001E+02 0.43943035736E+02 0.67094546347E+02 0.97230066458E+02 0.13193007889E+03
 0.16947051648E+03 0.20639588581E+03 0.23500409784E+03 0.19067240598E+03 0.18211074032E+03
 0.15961025745E+03 0.13027309567E+03 0.10047562409E+03 0.73686845278E+02 0.51648182465E+02
 0.35710903600E+02 0.25984834409E+02 0.20142915663E+02 0.16488586809E+02 0.14418180753E+02
 0.13372992430E+02 0.12944120948E+02 0.12768740125E+02 0.12637655537E+02 0.12573772638E+02
 0.12637655537E+02 0.12768740125E+02 0.12944120948E+02 0.13372992430E+02 0.14418180753E+02
 0.16488586809E+02 0.20142915663E+02 0.25984834409E+02 0.35710903600E+02 0.51648182465E+02
 0.73686845278E+02 0.10047562409E+03 0.13027309567E+03 0.15961025745E+03 0.18211074032E+03
 0.13960793238E+03 0.13325150421E+03 0.11648838919E+03 0.94610865769E+02 0.72700348033E+02
 0.53809500529E+02 0.39275638919E+02 0.29416161823E+02 0.23257451125E+02 0.19194199916E+02
 0.16830014747E+02 0.15674593432E+02 0.15293032884E+02 0.15357903185E+02 0.15574557732E+02
 0.15738188635E+02 0.15790845509E+02 0.15738188635E+02 0.15574557732E+02 0.15357903185E+02
 0.15293032884E+02 0.15674593432E+02 0.16830014747E+02 0.19194199916E+02 0.23257451125E+02
 0.29416161823E+02 0.39275638919E+02 0.53809500529E+02 0.72700348033E+02 0.94610865769E+02
 0.11648838919E+03 0.13325150421E+03 0.94708912519E+02 0.90453767550E+02 0.79255968374E+02
 0.64773057012E+02 0.50626894546E+02 0.39013553710E+02 0.30636325421E+02 0.25081431979E+02
 0.21257066308E+02 0.18936474870E+02 0.17919458954E+02 0.17836365238E+02 0.18358101847E+02
 0.19197725214E+02 0.20081526441E+02 0.20746108024E+02 0.20991480777E+02 0.20746108024E+02
 0.20081526441E+02 0.19197725214E+02 0.18358101847E+02 0.17836365238E+02 0.17919458954E+02
 0.18936474870E+02 0.21257066308E+02 0.25081431979E+02 0.30636325421E+02 0.39013553710E+02
 0.50626894546E+02 0.64773057012E+02 0.79255968374E+02 0.90453767550E+02 0.59128019496E+02
 0.56746930690E+02 0.50524594817E+02 0.42611266144E+02 0.35117299871E+02 0.29221075192E+02
 0.25032529050E+02 0.22023683457E+02 0.20193922343E+02 0.19575052805E+02 0.19988792558E+02
 0.21181616058E+02 0.23000246467E+02 0.25253041496E+02 0.27518201509E+02 0.29220513743E+02
 0.29854939435E+02 0.29220513743E+02 0.27518201509E+02 0.25253041496E+02 0.23000246467E+02
 0.21181616058E+02 0.19988792558E+02 0.19575052805E+02 0.20193922343E+02 0.22023683457E+02
 0.25032529050E+02 0.29221075192E+02 0.35117299871E+02 0.42611266144E+02 0.50524594817E+02
 0.56746930690E+02 0.35827410762E+02 0.34797550903E+02 0.32128593036E+02 0.28784610833E+02
 0.25652310643E+02 0.23095215861E+02 0.21182542946E+02 0.20159580753E+02 0.20169987215E+02
 0.21206301196E+02 0.23185921808E+02 0.26195930255E+02 0.30196859229E+02 0.34811682725E+02
 0.39268613692E+02 0.42549453987E+02 0.43762018531E+02 0.42549453987E+02 0.39268613692E+02
 0.34811682725E+02 0.30196859229E+02 0.26195930255E+02 0.23185921808E+02 0.21206301196E+02
 0.20169987215E+02 0.20159580753E+02 0.21182542946E+02 0.23095215861E+02 0.25652310643E+02
 0.28784610833E+02 0.32128593036E+02 0.34797550903E+02 0.23518029853E+02 0.23172464480E+02
 0.22255295723E+02 0.21032486597E+02 0.19831223897E+02 0.18989975184E+02 0.18797070075E+02
 0.19471841267E+02 0.21135797348E+02 0.23849171424E+02 0.27900423996E+02 0.33425110563E+02
 0.40219423874E+02 0.47646055319E+02 0.54580036599E+02 0.59590098400E+02 0.61427074691E+02
 0.59590098400E+02 0.54580036599E+02 0.47646055319E+02 0.40219423874E+02 0.33425110563E+02
 0.27900423996E+02 0.23849171424E+02 0.21135797348E+02 0.19471841267E+02 0.18797070075E+02
 0.18989975184E+02 0.19831223897E+02 0.21032486597E+02 0.22255295723E+02 0.23172464480E+02
 0.16708568598E+02 0.16614609259E+02 0.16378215819E+02 0.16134922710E+02 0.16096137736E+02
 0.16516030086E+02 0.17658028479E+02 0.19753891978E+02 0.22963181572E+02 0.27709103911E+02
 0.34282801732E+02 0.42541859695E+02 0.52006250277E+02 0.61847413661E+02 0.70778652104E+02
 0.77150608063E+02 0.79477278582E+02 0.77150608063E+02 0.70778652104E+02 0.61847413661E+02
 0.52006250277E+02 0.42541859695E+02 0.34282801732E+02 0.27709103911E+02 0.22963181572E+02
 0.19753891978E+02 0.17658028479E+02 0.16516030086E+02 0.16096137736E+02 0.16134922710E+02
 0.16378215819E+02 0.16614609259E+02 0.12508728307E+02 0.12569703179E+02 0.12764868209E+02
 0.13155538213E+02 0.13889869666E+02 0.15206426803E+02 0.17400484902E+02 0.20737261387E+02
 0.25673328955E+02 0.32799252497E+02 0.42019044740E+02 0.52701957057E+02 0.64089603767E+02
 0.75388983785E+02 0.85458243504E+02 0.92637911908E+02 0.95268920811E+02 0.92637911908E+02
 0.85458243504E+02 0.75388983785E+02 0.64089603767E+02 0.52701957057E+02 0.42019044740E+02
 0.32799252497E+02 0.25673328955E+02 0.20737261387E+02 0.17400484902E+02 0.15206426803E+02
 0.13889869666E+02 0.13155538213E+02 0.12764868209E+02 0.12569703179E+02 0.10142186483E+02
 0.10286404970E+02 0.10716772480E+02 0.11468642593E+02 0.12686667238E+02 0.14647054267E+02
 0.17706484164E+02 0.22256104716E+02 0.29180153360E+02 0.38866180427E+02 0.50610232432E+02
 0.63197481566E+02 0.75731251153E+02 0.87757116404E+02 0.98516431649E+02 0.10634670971E+03
 0.10926053838E+03 0.10634670971E+03 0.98516431649E+02 0.87757116404E+02 0.75731251153E+02
 0.63197481566E+02 0.50610232432E+02 0.38866180427E+02 0.29180153360E+02 0.22256104716E+02
 0.17706484164E+02 0.14647054267E+02 0.12686667238E+02 0.11468642593E+02 0.10716772480E+02
 0.10286404970E+02 0.89556755824E+01 0.91333626889E+01 0.96638532447E+01 0.10591841621E+02
 0.12098816235E+02 0.14529415089E+02 0.18310839266E+02 0.24130908416E+02 0.33148901004E+02
 0.45376814788E+02 0.59421754648E+02 0.73550071884E+02 0.86952942443E+02 0.99751385779E+02
 0.11159819116E+03 0.12057029578E+03 0.12398752552E+03 0.12057029578E+03 0.11159819116E+03
 0.99751385779E+02 0.86952942443E+02 0.73550071884E+02 0.59421754648E+02 0.45376814788E+02
 0.33148901004E+02 0.24130908416E+02 0.18310839266E+02 0.14529415089E+02 0.12098816235E+02
 0.10591841621E+02 0.96638532447E+01 0.91333626889E+01 0.82700077834E+01 0.84636425713E+01
 0.90459598551E+01 0.10079806619E+02 0.11789463228E+02 0.14586379284E+02 0.18974988125E+02
 0.26007726474E+02 0.36948004939E+02 0.51426343294E+02 0.67448284006E+02 0.82938989410E+02
 0.97360277194E+02 0.11146405825E+03 0.12515995290E+03 0.13594648358E+03 0.14013507980E+03
 0.13594648358E+03 0.12515995290E+03 0.11146405825E+03 0.97360277194E+02 0.82938989410E+02
 0.67448284006E+02 0.51426343294E+02 0.36948004939E+02 0.26007726474E+02 0.18974988125E+02
 0.14586379284E+02 0.11789463228E+02 0.10079806619E+02 0.90459598551E+01 0.84636425713E+01
 0.77177658348E+01 0.79292457539E+01 0.85659645140E+01 0.96981328494E+01 0.11572967048E+02
 0.14642372974E+02 0.19480522188E+02 0.27415161160E+02 0.39738719761E+02 0.55808625282E+02
 0.73238131283E+02 0.89794018961E+02 0.10522739997E+03 0.12076916971E+03 0.13640982673E+03
 0.14901838586E+03 0.15396452375E+03 0.14901838586E+03 0.13640982673E+03 0.12076916971E+03
 0.10522739997E+03 0.89794018961E+02 0.73238131283E+02 0.55808625282E+02 0.39738719761E+02
 0.27415161160E+02 0.19480522188E+02 0.14642372974E+02 0.11572967048E+02 0.96981328494E+01
 0.85659645140E+01 0.79292457539E+01 0.74681351142E+01 0.76893790919E+01 0.83547042243E+01
 0.95343596307E+01 0.11480640505E+02 0.14657450948E+02 0.19667621617E+02 0.27939380412E+02
 0.40770416282E+02 0.57420569539E+02 0.75369529726E+02 0.92344053741E+02 0.10821845440E+03
 0.12440084626E+03 0.14088759925E+03 0.15427320353E+03 0.15953933838E+03 0.15427320353E+03
 0.14088759925E+03 0.12440084626E+03 0.10821845440E+03 0.92344053741E+02 0.75369529726E+02
 0.57420569539E+02 0.40770416282E+02 0.27939380412E+02 0.19667621617E+02 0.14657450948E+02
 0.11480640505E+02 0.95343596307E+01 0.83547042243E+01 0.76893790919E+01 0.77177658348E+01
 0.79292457539E+01 0.85659645140E+01 0.96981328494E+01 0.11572967048E+02 0.14642372974E+02
 0.19480522188E+02 0.27415161160E+02 0.39738719761E+02 0.55808625282E+02 0.73238131283E+02
 0.89794018961E+02 0.10522739997E+03 0.12076916971E+03 0.13640982673E+03 0.14901838586E+03
 0.15396452375E+03 0.14901838586E+03 0.13640982673E+03 0.12076916971E+03 0.10522739997E+03
 0.89794018961E+02 0.73238131283E+02 0.55808625282E+02 0.39738719761E+02 0.27415161160E+02
 0.19480522188E+02 0.14642372974E+02 0.11572967048E+02 0.96981328494E+01 0.85659645140E+01
 0.79292457539E+01 0.82700077834E+01 0.84636425713E+01 0.90459598551E+01 0.10079806619E+02
 0.11789463228E+02 0.14586379284E+02 0.18974988125E+02 0.26007726474E+02 0.36948004939E+02
 0.51426343294E+02 0.67448284006E+02 0.82938989410E+02 0.97360277194E+02 0.11146405825E+03
 0.12515995290E+03 0.13594648358E+03 0.14013507980E+03 0.13594648358E+03 0.12515995290E+03
 0.11146405825E+03 0.97360277194E+02 0.82938989410E+02 0.67448284006E+02 0.51426343294E+02
 0.36948004939E+02 0.26007726474E+02 0.18974988125E+02 0.14586379284E+02 0.11789463228E+02
 0.10079806619E+02 0.90459598551E+01 0.84636425713E+01 0.89556755824E+01 0.91333626889E+01
 0.96638532447E+01 0.10591841621E+02 0.12098816235E+02 0.14529415089E+02 0.18310839266E+02
 0.24130908416E+02 0.33148901004E+02 0.45376814788E+02 0.59421754648E+02 0.73550071884E+02
 0.86952942443E+02 0.99751385779E+02 0.11159819116E+03 0.12057029578E+03 0.12398752552E+03
 0.12057029578E+03 0.11159819116E+03 0.99751385779E+02 0.86952942443E+02 0.73550071884E+02
 0.59421754648E+02 0.45376814788E+02 0.33148901004E+02 0.24130908416E+02 0.18310839266E+02
 0.14529415089E+02 0.12098816235E+02 0.10591841621E+02 0.96638532447E+01 0.91333626889E+01
 0.10142186483E+02 0.10286404970E+02 0.10716772480E+02 0.11468642593E+02 0.12686667238E+02
 0.14647054267E+02 0.17706484164E+02 0.22256104716E+02 0.29180153360E+02 0.38866180427E+02
 0.50610232432E+02 0.63197481566E+02 0.75731251153E+02 0.87757116404E+02 0.98516431649E+02
 0.10634670971E+03 0.10926053838E+03 0.10634670971E+03 0.98516431649E+02 0.87757116404E+02
 0.75731251153E+02 0.63197481566E+02 0.50610232432E+02 0.38866180427E+02 0.29180153360E+02
 0.22256104716E+02 0.17706484164E+02 0.14647054267E+02 0.12686667238E+02 0.11468642593E+02
 0.10716772480E+02 0.10286404970E+02 0.12508728307E+02 0.12569703179E+02 0.12764868209E+02
 0.13155538213E+02 0.13889869666E+02 0.15206426803E+02 0.17400484902E+02 0.20737261387E+02
 0.25673328955E+02 0.32799252497E+02 0.42019044740E+02 0.52701957057E+02 0.64089603767E+02
 0.75388983785E+02 0.85458243504E+02 0.92637911908E+02 0.95268920811E+02 0.92637911908E+02
 0.85458243504E+02 0.75388983785E+02 0.64089603767E+02 0.52701957057E+02 0.42019044740E+02
 0.32799252497E+02 0.25673328955E+02 0.20737261387E+02 0.17400484902E+02 0.15206426803E+02
 0.13889869666E+02 0.13155538213E+02 0.12764868209E+02 0.12569703179E+02 0.16708568598E+02
 0.16614609259E+02 0.16378215819E+02 0.16134922710E+02 0.16096137736E+02 0.16516030086E+02
 0.17658028479E+02 0.19753891978E+02 0.22963181572E+02 0.27709103911E+02 0.34282801732E+02
 0.42541859695E+02 0.52006250277E+02 0.61847413661E+02 0.70778652104E+02 0.77150608063E+02
 0.79477278582E+02 0.77150608063E+02 0.70778652104E+02 0.61847413661E+02 0.52006250277E+02
 0.42541859695E+02 0.34282801732E+02 0.27709103911E+02 0.22963181572E+02 0.19753891978E+02
 0.17658028479E+02 0.16516030086E+02 0.16096137736E+02 0.16134922710E+02 0.16378215819E+02
 0.16614609259E+02 0.23518029853E+02 0.23172464480E+02 0.22255295723E+02 0.21032486597E+02
 0.19831223897E+02 0.18989975184E+02 0.18797070075E+02 0.19471841267E+02 0.21135797348E+02
 0.23849171424E+02 0.27900423996E+02 0.33425110563E+02 0.40219423874E+02 0.47646055319E+02
 0.54580036599E+02 0.59590098400E+02 0.61427074691E+02 0.59590098400E+02 0.54580036599E+02
 0.47646055319E+02 0.40219423874E+02 0.33425110563E+02 0.27900423996E+02 0.23849171424E+02
 0.21135797348E+02 0.19471841267E+02 0.18797070075E+02 0.18989975184E+02 0.19831223897E+02
 0.21032486597E+02 0.22255295723E+02 0.23172464480E+02 0.35827410762E+02 0.34797550903E+02
 0.32128593036E+02 0.28784610833E+02 0.25652310643E+02 0.23095215861E+02 0.21182542946E+02
 0.20159580753E+02 0.20169987215E+02 0.21206301196E+02 0.23185921808E+02 0.26195930255E+02
 0.30196859229E+02 0.34811682725E+02 0.39268613692E+02 0.42549453987E+02 0.43762018531E+02
 0.42549453987E+02 0.39268613692E+02 0.34811682725E+02 0.30196859229E+02 0.26195930255E+02
 0.23185921808E+02 0.21206301196E+02 0.20169987215E+02 0.20159580753E+02 0.21182542946E+02
 0.23095215861E+02 0.25652310643E+02 0.28784610833E+02 0.32128593036E+02 0.34797550903E+02
 0.59128019496E+02 0.56746930690E+02 0.50524594817E+02 0.42611266144E+02 0.35117299871E+02
 0.29221075192E+02 0.25032529050E+02 0.22023683457E+02 0.20193922343E+02 0.19575052805E+02
 0.19988792558E+02 0.21181616058E+02 0.23000246467E+02 0.25253041496E+02 0.27518201509E+02
 0.29220513743E+02 0.29854939435E+02 0.29220513743E+02 0.27518201509E+02 0.25253041496E+02
 0.23000246467E+02 0.21181616058E+02 0.19988792558E+02 0.19575052805E+02 0.20193922343E+02
 0.22023683457E+02 0.25032529050E+02 0.29221075192E+02 0.35117299871E+02 0.42611266144E+02
 0.50524594817E+02 0.56746930690E+02 0.94708912519E+02 0.90453767550E+02 0.79255968374E+02
 0.64773057012E+02 0.50626894546E+02 0.39013553710E+02 0.30636325421E+02 0.25081431979E+02
 0.21257066308E+02 0.18936474870E+02 0.17919458954E+02 0.17836365238E+02 0.18358101847E+02
 0.19197725214E+02 0.20081526441E+02 0.20746108024E+02 0.20991480777E+02 0.20746108024E+02
 0.20081526441E+02 0.19197725214E+02 0.18358101847E+02 0.17836365238E+02 0.17919458954E+02
 0.18936474870E+02 0.21257066308E+02 0.25081431979E+02 0.30636325421E+02 0.39013553710E+02
 0.50626894546E+02 0.64773057012E+02 0.79255968374E+02 0.90453767550E+02 0.13960793238E+03
 0.13325150421E+03 0.11648838919E+03 0.94610865769E+02 0.72700348033E+02 0.53809500529E+02
 0.39275638919E+02 0.29416161823E+02 0.23257451125E+02 0.19194199916E+02 0.16830014747E+02
 0.15674593432E+02 0.15293032884E+02 0.15357903185E+02 0.15574557732E+02 0.15738188635E+02
 0.15790845509E+02 0.15738188635E+02 0.15574557732E+02 0.15357903185E+02 0.15293032884E+02
 0.15674593432E+02 0.16830014747E+02 0.19194199916E+02 0.23257451125E+02 0.29416161823E+02
 0.39275638919E+02 0.53809500529E+02 0.72700348033E+02 0.94610865769E+02 0.11648838919E+03
 0.13325150421E+03 0.19067240598E+03 0.18211074032E+03 0.15961025745E+03 0.13027309567E+03
 0.10047562409E+03 0.73686845278E+02 0.51648182465E+02 0.35710903600E+02 0.25984834409E+02
 0.20142915663E+02 0.16488586809E+02 0.14418180753E+02 0.13372992430E+02 0.12944120948E+02
 0.12768740125E+02 0.12637655537E+02 0.12573772638E+02 0.12637655537E+02 0.12768740125E+02
 0.12944120948E+02 0.13372992430E+02 0.14418180753E+02 0.16488586809E+02 0.20142915663E+02
 0.25984834409E+02 0.35710903600E+02 0.51648182465E+02 0.73686845278E+02 0.10047562409E+03
 0.13027309567E+03 0.15961025745E+03 0.18211074032E+03 0.24597500477E+03 0.23500409784E+03
 0.20639588581E+03 0.16947051648E+03 0.13193007889E+03 0.97230066458E+02 0.67094546347E+02
 0.43943035736E+02 0.29410148001E+02 0.21491916324E+02 0.16623803277E+02 0.13755240754E+02
 0.12212798176E+02 0.11486303058E+02 0.11099759444E+02 0.10794441921E+02 0.10654819512E+02
 0.10794441921E+02 0.11099759444E+02 0.11486303058E+02 0.12212798176E+02 0.13755240754E+02
 0.16623803277E+02 0.21491916324E+02 0.29410148001E+02 0.43943035736E+02 0.67094546347E+02
 0.97230066458E+02 0.13193007889E+03 0.16947051648E+03 0.20639588581E+03 0.23500409784E+03
 0.30067117580E+03 0.28714939438E+03 0.25218871262E+03 0.20767967993E+03 0.16281164160E+03
 0.12083351758E+03 0.83078848870E+02 0.52787257121E+02 0.33144896443E+02 0.22875729820E+02
 0.16964263991E+02 0.13430890689E+02 0.11514312640E+02 0.10608073537E+02 0.10114040168E+02
 0.97071374852E+01 0.95180023772E+01 0.97071374852E+01 0.10114040168E+02 0.10608073537E+02
 0.11514312640E+02 0.13430890689E+02 0.16964263991E+02 0.22875729820E+02 0.33144896443E+02
 0.52787257121E+02 0.83078848870E+02 0.12083351758E+03 0.16281164160E+03 0.20767967993E+03
 0.25218871262E+03 0.28714939438E+03 0.34322869914E+03 0.32758978705E+03 0.28739527774E+03
 0.23676617364E+03 0.18621926533E+03 0.13882863160E+03 0.95455467049E+02 0.59794023206E+02
 0.36163666392E+02 0.23922015078E+02 0.17274008165E+02 0.13282265816E+02 0.11119537248E+02
 0.10110852943E+02 0.95649977776E+01 0.91024936550E+01 0.88837562019E+01 0.91024936550E+01
 0.95649977776E+01 0.10110852943E+02 0.11119537248E+02 0.13282265816E+02 0.17274008165E+02
 0.23922015078E+02 0.36163666392E+02 0.59794023206E+02 0.95455467049E+02 0.13882863160E+03
 0.18621926533E+03 0.23676617364E+03 0.28739527774E+03 0.32758978705E+03 0.34349450137E+03
 0.32791792705E+03 0.28785817551E+03 0.23732380547E+03 0.18675064281E+03 0.13922032667E+03
 0.95669933873E+02 0.59871072467E+02 0.36172074720E+02 0.23911964643E+02 0.17264716569E+02
 0.13280467045E+02 0.11128067868E+02 0.10130184730E+02 0.95940190751E+01 0.91384885944E+01
 0.89223345306E+01 0.91384885944E+01 0.95940190751E+01 0.10130184730E+02 0.11128067868E+02
 0.13280467045E+02 0.17264716569E+02 0.23911964643E+02 0.36172074720E+02 0.59871072467E+02
 0.95669933873E+02 0.13922032667E+03 0.18675064281E+03 0.23732380547E+03 0.28785817551E+03
 0.32791792705E+03 0.32842943353E+03 0.31360717776E+03 0.27540880232E+03 0.22704141703E+03
 0.17846508326E+03 0.13282943840E+03 0.91251685230E+02 0.57351866271E+02 0.35076975459E+02
 0.23534034826E+02 0.17147301206E+02 0.13322876128E+02 0.11255206706E+02 0.10290985392E+02
 0.97705689971E+01 0.93326902363E+01 0.91262322249E+01 0.93326902363E+01 0.97705689971E+01
 0.10290985392E+02 0.11255206706E+02 0.13322876128E+02 0.17147301206E+02 0.23534034826E+02
 0.35076975459E+02 0.57351866271E+02 0.91251685230E+02 0.13282943840E+03 0.17846508326E+03
 0.22704141703E+03 0.27540880232E+03 0.31360717776E+03 0.28899735217E+03 0.27608270228E+03
 0.24260506243E+03 0.19978370709E+03 0.15642235849E+03 0.11585482156E+03 0.79596794166E+02
 0.50779221868E+02 0.32250839347E+02 0.22529001886E+02 0.16847551492E+02 0.13465244713E+02
 0.11635366261E+02 0.10771157068E+02 0.10301852745E+02 0.99178713520E+01 0.97398660115E+01
 0.99178713520E+01 0.10301852745E+02 0.10771157068E+02 0.11635366261E+02 0.13465244713E+02
 0.16847551492E+02 0.22529001886E+02 0.32250839347E+02 0.50779221868E+02 0.79596794166E+02
 0.11585482156E+03 0.15642235849E+03 0.19978370709E+03 0.24260506243E+03 0.27608270228E+03
 0.23770227500E+03 0.22711919956E+03 0.19946337580E+03 0.16364468354E+03 0.12714800457E+03
 0.93498555524E+02 0.64510687303E+02 0.42471362103E+02 0.28742451693E+02 0.21190004397E+02
 0.16517506167E+02 0.13776279252E+02 0.12307728306E+02 0.11618594862E+02 0.11254601704E+02
 0.10969003698E+02 0.10838618102E+02 0.10969003698E+02 0.11254601704E+02 0.11618594862E+02
 0.12307728306E+02 0.13776279252E+02 0.16517506167E+02 0.21190004397E+02 0.28742451693E+02
 0.42471362103E+02 0.64510687303E+02 0.93498555524E+02 0.12714800457E+03 0.16364468354E+03
 0.19946337580E+03 0.22711919956E+03 0.18494374685E+03 0.17662260897E+03 0.15472587187E+03
 0.12612794846E+03 0.97083850438E+02 0.71087306083E+02 0.49891131509E+02 0.34719923947E+02
 0.25497188373E+02 0.19883861487E+02 0.16384365194E+02 0.14412660712E+02 0.13424381065E+02
 0.13024530183E+02 0.12866390777E+02 0.12749569095E+02 0.12692187096E+02 0.12749569095E+02
 0.12866390777E+02 0.13024530183E+02 0.13424381065E+02 0.14412660712E+02 0.16384365194E+02
 0.19883861487E+02 0.25497188373E+02 0.34719923947E+02 0.49891131509E+02 0.71087306083E+02
 0.97083850438E+02 0.12612794846E+03 0.15472587187E+03 0.17662260897E+03 0.13547768325E+03
 0.12929124354E+03 0.11296937212E+03 0.91664766215E+02 0.70363487312E+02 0.52091234749E+02
 0.38150686886E+02 0.28764602169E+02 0.22865601912E+02 0.18963618399E+02 0.16709564418E+02
 0.15620052944E+02 0.15272959872E+02 0.15352188496E+02 0.15575032664E+02 0.15743754255E+02
 0.15798955618E+02 0.15743754255E+02 0.15575032664E+02 0.15352188496E+02 0.15272959872E+02
 0.15620052944E+02 0.16709564418E+02 0.18963618399E+02 0.22865601912E+02 0.28764602169E+02
 0.38150686886E+02 0.52091234749E+02 0.70363487312E+02 0.91664766215E+02 0.11296937212E+03
 0.12929124354E+03 0.91747872790E+02 0.87625380707E+02 0.76778543250E+02 0.62760992752E+02
 0.49101545305E+02 0.37939572253E+02 0.29932074064E+02 0.24610734061E+02 0.20925507002E+02
 0.18710294192E+02 0.17755756820E+02 0.17700951648E+02 0.18227509615E+02 0.19057397135E+02
 0.19921322536E+02 0.20567919730E+02 0.20806349598E+02 0.20567919730E+02 0.19921322536E+02
 0.19057397135E+02 0.18227509615E+02 0.17700951648E+02 0.17755756820E+02 0.18710294192E+02
 0.20925507002E+02 0.24610734061E+02 0.29932074064E+02 0.37939572253E+02 0.49101545305E+02
 0.62760992752E+02 0.76778543250E+02 0.87625380707E+02 0.57254465642E+02 0.54966379474E+02
 0.48989766746E+02 0.41397093910E+02 0.34219748854E+02 0.28580429878E+02 0.24553051931E+02
 0.21644160030E+02 0.19895710299E+02 0.19324063688E+02 0.19751092729E+02 0.20927877826E+02
 0.22691453479E+02 0.24859409667E+02 0.27031725497E+02 0.28661682032E+02 0.29268771487E+02
 0.28661682032E+02 0.27031725497E+02 0.24859409667E+02 0.22691453479E+02 0.20927877826E+02
 0.19751092729E+02 0.19324063688E+02 0.19895710299E+02 0.21644160030E+02 0.24553051931E+02
 0.28580429878E+02 0.34219748854E+02 0.41397093910E+02 0.48989766746E+02 0.54966379474E+02
 0.34872292837E+02 0.33890542303E+02 0.31345886115E+02 0.28154483958E+02 0.25152225235E+02
 0.22671656688E+02 0.20819994126E+02 0.19843598674E+02 0.19875089334E+02 0.20903910903E+02
 0.22837477762E+02 0.25744946210E+02 0.29590756467E+02 0.34013608904E+02 0.38276343378E+02
 0.41409961274E+02 0.42567326774E+02 0.41409961274E+02 0.38276343378E+02 0.34013608904E+02
 0.29590756467E+02 0.25744946210E+02 0.22837477762E+02 0.20903910903E+02 0.19875089334E+02
 0.19843598674E+02 0.20819994126E+02 0.22671656688E+02 0.25152225235E+02 0.28154483958E+02
 0.31345886115E+02 0.33890542303E+02 0.23090904391E+02 0.22757265514E+02 0.21867112569E+02
 0.20674946689E+02 0.19508200360E+02 0.18696605016E+02 0.18518950148E+02 0.19187026222E+02
 0.20819989492E+02 0.23464052424E+02 0.27384665216E+02 0.32716754186E+02 0.39257555089E+02
 0.46385511641E+02 0.53020866554E+02 0.57804159114E+02 0.59555834649E+02 0.57804159114E+02
 0.53020866554E+02 0.46385511641E+02 0.39257555089E+02 0.32716754186E+02 0.27384665216E+02
 0.23464052424E+02 0.20819989492E+02 0.19187026222E+02 0.18518950148E+02 0.18696605016E+02
 0.19508200360E+02 0.20674946689E+02 0.21867112569E+02 0.22757265514E+02 0.16487707961E+02
 0.16396206561E+02 0.16166684258E+02 0.15932257751E+02 0.15898795661E+02 0.16312443879E+02
 0.17428637845E+02 0.19475103120E+02 0.22603156056E+02 0.27207048653E+02 0.33584793279E+02
 0.41594805806E+02 0.50747609391E+02 0.60217583148E+02 0.68765162551E+02 0.74836918179E+02
 0.77048795944E+02 0.74836918179E+02 0.68765162551E+02 0.60217583148E+02 0.50747609391E+02
 0.41594805806E+02 0.33584793279E+02 0.27207048653E+02 0.22603156056E+02 0.19475103120E+02
 0.17428637845E+02 0.16312443879E+02 0.15898795661E+02 0.15932257751E+02 0.16166684258E+02
 0.16396206561E+02 0.12442263974E+02 0.12500239609E+02 0.12687046961E+02 0.13064272443E+02
 0.13777182982E+02 0.15057791858E+02 0.17194322290E+02 0.20448797800E+02 0.25243494784E+02
 0.32176054362E+02 0.41176281376E+02 0.51611916546E+02 0.62688100249E+02 0.73581801721E+02
 0.83191984456E+02 0.89989994445E+02 0.92470793758E+02 0.89989994445E+02 0.83191984456E+02
 0.73581801721E+02 0.62688100249E+02 0.51611916546E+02 0.41176281376E+02 0.32176054362E+02
 0.25243494784E+02 0.20448797800E+02 0.17194322290E+02 0.15057791858E+02 0.13777182982E+02
 0.13064272443E+02 0.12687046961E+02 0.12500239609E+02 0.10186351899E+02 0.10322893966E+02
 0.10732049545E+02 0.11452215037E+02 0.12627795846E+02 0.14529719119E+02 0.17508762551E+02
 0.21937912367E+02 0.28670987412E+02 0.38140730241E+02 0.49687498737E+02 0.62081370960E+02
 0.74339139721E+02 0.85923260721E+02 0.96110679667E+02 0.10343134165E+03 0.10613874312E+03
 0.10343134165E+03 0.96110679667E+02 0.85923260721E+02 0.74339139721E+02 0.62081370960E+02
 0.49687498737E+02 0.38140730241E+02 0.28670987412E+02 0.21937912367E+02 0.17508762551E+02
 0.14529719119E+02 0.12627795846E+02 0.11452215037E+02 0.10732049545E+02 0.10322893966E+02
 0.90783646220E+01 0.92446501034E+01 0.97437652592E+01 0.10625841588E+02 0.12074375778E+02
 0.14429800428E+02 0.18114373724E+02 0.23771980050E+02 0.32562983476E+02 0.44574877303E+02
 0.58473091798E+02 0.72480131504E+02 0.85630211969E+02 0.97897298299E+02 0.10897710149E+03
 0.11723578256E+03 0.12035951450E+03 0.11723578256E+03 0.10897710149E+03 0.97897298299E+02
 0.85630211969E+02 0.72480131504E+02 0.58473091798E+02 0.44574877303E+02 0.32562983476E+02
 0.23771980050E+02 0.18114373724E+02 0.14429800428E+02 0.12074375778E+02 0.10625841588E+02
 0.97437652592E+01 0.92446501034E+01 0.84599909207E+01 0.86387962678E+01 0.91804205209E+01
 0.10155480529E+02 0.11792577171E+02 0.14500294563E+02 0.18774333537E+02 0.25608675293E+02
 0.36297062819E+02 0.50570094742E+02 0.66497520121E+02 0.81922060667E+02 0.96072369728E+02
 0.10949335731E+03 0.12215973594E+03 0.13197664184E+03 0.13576491007E+03 0.13197664184E+03
 0.12215973594E+03 0.10949335731E+03 0.96072369728E+02 0.81922060667E+02 0.66497520121E+02
 0.50570094742E+02 0.36297062819E+02 0.25608675293E+02 0.18774333537E+02 0.14500294563E+02
 0.11792577171E+02 0.10155480529E+02 0.91804205209E+01 0.86387962678E+01 0.79673828436E+01
 0.81609211610E+01 0.87484939002E+01 0.98102635288E+01 0.11600076770E+02 0.14568541452E+02
 0.19276009767E+02 0.26987194230E+02 0.39043342803E+02 0.54917792927E+02 0.72287791972E+02
 0.88803653153E+02 0.10392375797E+03 0.11863008368E+03 0.13300358234E+03 0.14441941316E+03
 0.14887354588E+03 0.14441941316E+03 0.13300358234E+03 0.11863008368E+03 0.10392375797E+03
 0.88803653153E+02 0.72287791972E+02 0.54917792927E+02 0.39043342803E+02 0.26987194230E+02
 0.19276009767E+02 0.14568541452E+02 0.11600076770E+02 0.98102635288E+01 0.87484939002E+01
 0.81609211610E+01 0.77437622372E+01 0.79456999653E+01 0.85581725283E+01 0.96623473584E+01
 0.11518205221E+02 0.14589109988E+02 0.19461859909E+02 0.27500941251E+02 0.40059115507E+02
 0.56517467558E+02 0.74418682317E+02 0.91359412802E+02 0.10689865535E+03 0.12218066457E+03
 0.13730346469E+03 0.14940701313E+03 0.15414468000E+03 0.14940701313E+03 0.13730346469E+03
 0.12218066457E+03 0.10689865535E+03 0.91359412802E+02 0.74418682317E+02 0.56517467558E+02
 0.40059115507E+02 0.27500941251E+02 0.19461859909E+02 0.14589109988E+02 0.11518205221E+02
 0.96623473584E+01 0.85581725283E+01 0.79456999653E+01 0.79673828436E+01 0.81609211610E+01
 0.87484939002E+01 0.98102635288E+01 0.11600076770E+02 0.14568541452E+02 0.19276009767E+02
 0.26987194230E+02 0.39043342803E+02 0.54917792927E+02 0.72287791972E+02 0.88803653153E+02
 0.10392375797E+03 0.11863008368E+03 0.13300358234E+03 0.14441941316E+03 0.14887354588E+03
 0.14441941316E+03 0.13300358234E+03 0.11863008368E+03 0.10392375797E+03 0.88803653153E+02
 0.72287791972E+02 0.54917792927E+02 0.39043342803E+02 0.26987194230E+02 0.19276009767E+02
 0.14568541452E+02 0.11600076770E+02 0.98102635288E+01 0.87484939002E+01 0.81609211610E+01
 0.84599909207E+01 0.86387962678E+01 0.91804205209E+01 0.10155480529E+02 0.11792577171E+02
 0.14500294563E+02 0.18774333537E+02 0.25608675293E+02 0.36297062819E+02 0.50570094742E+02
 0.66497520121E+02 0.81922060667E+02 0.96072369728E+02 0.10949335731E+03 0.12215973594E+03
 0.13197664184E+03 0.13576491007E+03 0.13197664184E+03 0.12215973594E+03 0.10949335731E+03
 0.96072369728E+02 0.81922060667E+02 0.66497520121E+02 0.50570094742E+02 0.36297062819E+02