   4   4   0   0
  0.1444527E+02  0.3866000E-09  0.3866000E-09  0.3866000E-09  0.5000000E-15
  1.000000000000000E-004
  CAR 
 unknown system                          
     27.35908425     -1.90442859  301      9.22389129      1.00000000
     -1.904  0.0000E+00  0.0000E+00
     -1.807  0.0000E+00  0.0000E+00
     -1.709  0.0000E+00  0.0000E+00
     -1.612  0.0000E+00  0.0000E+00
     -1.514 -0.2716E-28 -0.2650E-29
     -1.417 -0.5166E-25 -0.5042E-26
     -1.319 -0.6081E-22 -0.5937E-23
     -1.222 -0.4427E-19 -0.4324E-20
     -1.124 -0.1991E-16 -0.1946E-17
     -1.027 -0.5351E-14 -0.5239E-15
     -0.929 -0.9093E-12 -0.8922E-13
     -0.831 -0.9480E-10 -0.9337E-11
     -0.734 -0.6040E-08 -0.5985E-09
     -0.636 -0.2337E-06 -0.2340E-07
     -0.539 -0.5435E-05 -0.5536E-06
     -0.441 -0.7457E-04 -0.7827E-05
     -0.344 -0.5807E-03 -0.6448E-04
     -0.246 -0.2320E-02 -0.2907E-03
     -0.149 -0.2836E-02 -0.5674E-03
     -0.051  0.1055E-01  0.4621E-03
      0.046  0.4391E-01  0.4745E-02
      0.144  0.6260E-01  0.1085E-01
      0.242  0.3251E-01  0.1402E-01
      0.339 -0.6271E-02  0.1341E-01
      0.437  0.4471E-01  0.1777E-01
      0.534  0.2290E+00  0.4011E-01
      0.632  0.3728E+00  0.7647E-01
      0.729  0.2654E+00  0.1024E+00
      0.827  0.6139E-01  0.1083E+00
      0.924  0.1291E+00  0.1209E+00
      1.022  0.5247E+00  0.1721E+00
      1.119  0.7603E+00  0.2463E+00
      1.217  0.4921E+00  0.2943E+00
      1.315  0.1785E+00  0.3117E+00
      1.412  0.2770E+00  0.3387E+00
      1.510  0.5041E+00  0.3879E+00
      1.607  0.4510E+00  0.4319E+00
      1.705  0.2228E+00  0.4536E+00
      1.802  0.7170E-01  0.4606E+00
      1.900  0.9140E-01  0.4695E+00
      1.997  0.2855E+00  0.4974E+00
      2.095  0.5140E+00  0.5475E+00
      2.192  0.6914E+00  0.6150E+00
      2.290  0.1055E+01  0.7179E+00
      2.388  0.1614E+01  0.8753E+00
      2.485  0.1841E+01  0.1055E+01
      2.583  0.1513E+01  0.1202E+01
      2.680  0.8229E+00  0.1283E+01
      2.778  0.3333E+00  0.1315E+01
      2.875  0.7663E+00  0.1390E+01
      2.973  0.1941E+01  0.1579E+01
      3.070  0.2794E+01  0.1852E+01
      3.168  0.2838E+01  0.2129E+01
      3.265  0.2473E+01  0.2370E+01
      3.363  0.1916E+01  0.2557E+01
      3.461  0.1905E+01  0.2743E+01
      3.558  0.3499E+01  0.3084E+01
      3.656  0.5388E+01  0.3609E+01
      3.753  0.5446E+01  0.4141E+01
      3.851  0.4801E+01  0.4609E+01
      3.948  0.5475E+01  0.5143E+01
      4.046  0.6765E+01  0.5803E+01
      4.143  0.7382E+01  0.6523E+01
      4.241  0.7160E+01  0.7221E+01
      4.338  0.6100E+01  0.7817E+01
      4.436  0.4860E+01  0.8291E+01
      4.534  0.4823E+01  0.8761E+01
      4.631  0.5831E+01  0.9330E+01
      4.729  0.6290E+01  0.9943E+01
      4.826  0.5690E+01  0.1050E+02
      4.924  0.4834E+01  0.1097E+02
      5.021  0.4441E+01  0.1140E+02
      5.119  0.4625E+01  0.1185E+02
      5.216  0.4729E+01  0.1232E+02
      5.314  0.4392E+01  0.1274E+02
      5.411  0.4504E+01  0.1318E+02
      5.509  0.5472E+01  0.1372E+02
      5.607  0.6471E+01  0.1435E+02
      5.704  0.6935E+01  0.1502E+02
      5.802  0.6769E+01  0.1568E+02
      5.899  0.6236E+01  0.1629E+02
      5.997  0.6587E+01  0.1694E+02
      6.094  0.7931E+01  0.1771E+02
      6.192  0.8401E+01  0.1853E+02
      6.289  0.8285E+01  0.1934E+02
      6.387  0.1000E+02  0.2031E+02
      6.484  0.1245E+02  0.2153E+02
      6.582  0.1199E+02  0.2270E+02
      6.680  0.8721E+01  0.2355E+02
      6.777  0.6274E+01  0.2416E+02
      6.875  0.6684E+01  0.2481E+02
      6.972  0.8395E+01  0.2563E+02
      7.070  0.9255E+01  0.2653E+02
      7.167  0.9342E+01  0.2744E+02
      7.265  0.9339E+01  0.2836E+02
      7.362  0.8577E+01  0.2919E+02
      7.460  0.6647E+01  0.2984E+02
      7.557  0.4993E+01  0.3033E+02
      7.655  0.4661E+01  0.3078E+02
      7.753  0.4928E+01  0.3126E+02
      7.850  0.4872E+01  0.3174E+02
      7.948  0.4523E+01  0.3218E+02
      8.045  0.4846E+01  0.3265E+02
      8.143  0.6350E+01  0.3327E+02
      8.240  0.7931E+01  0.3405E+02
      8.338  0.8283E+01  0.3485E+02
      8.435  0.7592E+01  0.3559E+02
      8.533  0.6533E+01  0.3623E+02
      8.630  0.5456E+01  0.3676E+02
      8.728  0.4555E+01  0.3721E+02
      8.826  0.4159E+01  0.3761E+02
      8.923  0.4833E+01  0.3808E+02
      9.021  0.6032E+01  0.3867E+02
      9.118  0.6623E+01  0.3932E+02
      9.216  0.6464E+01  0.3995E+02
      9.313  0.5762E+01  0.4051E+02
      9.411  0.4834E+01  0.4098E+02
      9.508  0.4074E+01  0.4138E+02
      9.606  0.3561E+01  0.4173E+02
      9.703  0.3549E+01  0.4207E+02
      9.801  0.3674E+01  0.4243E+02
      9.899  0.2826E+01  0.4271E+02
      9.996  0.1384E+01  0.4284E+02
     10.094  0.8002E+00  0.4292E+02
     10.191  0.1155E+01  0.4303E+02
     10.289  0.1335E+01  0.4316E+02
     10.386  0.9980E+00  0.4326E+02
     10.484  0.8132E+00  0.4334E+02
     10.581  0.9425E+00  0.4343E+02
     10.679  0.9501E+00  0.4353E+02
     10.776  0.9392E+00  0.4362E+02
     10.874  0.1214E+01  0.4374E+02
     10.972  0.1520E+01  0.4388E+02
     11.069  0.1653E+01  0.4404E+02
     11.167  0.1517E+01  0.4419E+02
     11.264  0.9573E+00  0.4429E+02
     11.362  0.4760E+00  0.4433E+02
     11.459  0.5979E+00  0.4439E+02
     11.557  0.9170E+00  0.4448E+02
     11.654  0.8540E+00  0.4456E+02
     11.752  0.6640E+00  0.4463E+02
     11.849  0.8083E+00  0.4471E+02
     11.947  0.1009E+01  0.4481E+02
     12.045  0.8778E+00  0.4489E+02
     12.142  0.6255E+00  0.4495E+02
     12.240  0.5014E+00  0.4500E+02
     12.337  0.3974E+00  0.4504E+02
     12.435  0.3685E+00  0.4508E+02
     12.532  0.6442E+00  0.4514E+02
     12.630  0.1194E+01  0.4526E+02
     12.727  0.1665E+01  0.4542E+02
     12.825  0.1686E+01  0.4558E+02
     12.922  0.1432E+01  0.4572E+02
     13.020  0.1253E+01  0.4584E+02
     13.118  0.1163E+01  0.4596E+02
     13.215  0.1015E+01  0.4606E+02
     13.313  0.8047E+00  0.4614E+02
     13.410  0.7680E+00  0.4621E+02
     13.508  0.8993E+00  0.4630E+02
     13.605  0.9163E+00  0.4639E+02
     13.703  0.1095E+01  0.4649E+02
     13.800  0.1817E+01  0.4667E+02
     13.898  0.2303E+01  0.4690E+02
     13.995  0.1906E+01  0.4708E+02
     14.093  0.1127E+01  0.4719E+02
     14.191  0.4246E+00  0.4723E+02
     14.288  0.4145E-01  0.4724E+02
     14.386  0.1491E+00  0.4725E+02
     14.483  0.5411E+00  0.4730E+02
     14.581  0.7100E+00  0.4737E+02
     14.678  0.4282E+00  0.4742E+02
     14.776  0.6637E-01  0.4742E+02
     14.873  0.5227E-01  0.4743E+02
     14.971  0.4521E+00  0.4747E+02
     15.068  0.1061E+01  0.4757E+02
     15.166  0.1509E+01  0.4772E+02
     15.263  0.1448E+01  0.4786E+02
     15.361  0.1139E+01  0.4797E+02
     15.459  0.1359E+01  0.4811E+02
     15.556  0.2023E+01  0.4830E+02
     15.654  0.2184E+01  0.4852E+02
     15.751  0.1831E+01  0.4870E+02
     15.849  0.1501E+01  0.4884E+02
     15.946  0.1068E+01  0.4895E+02
     16.044  0.8157E+00  0.4903E+02
     16.141  0.1322E+01  0.4916E+02
     16.239  0.1982E+01  0.4935E+02
     16.336  0.1671E+01  0.4951E+02
     16.434  0.6403E+00  0.4957E+02
     16.532 -0.4380E-01  0.4957E+02
     16.629 -0.1747E-01  0.4957E+02
     16.727  0.6590E+00  0.4963E+02
     16.824  0.1695E+01  0.4980E+02
     16.922  0.2262E+01  0.5002E+02
     17.019  0.1932E+01  0.5021E+02
     17.117  0.1161E+01  0.5032E+02
     17.214  0.4322E+00  0.5036E+02
     17.312  0.1209E+00  0.5037E+02
     17.409  0.4688E+00  0.5042E+02
     17.507  0.1100E+01  0.5053E+02
     17.605  0.1375E+01  0.5066E+02
     17.702  0.1316E+01  0.5079E+02
     17.800  0.1618E+01  0.5095E+02
     17.897  0.2585E+01  0.5120E+02
     17.995  0.3110E+01  0.5150E+02
     18.092  0.2245E+01  0.5172E+02
     18.190  0.9301E+00  0.5181E+02
     18.287  0.3838E+00  0.5185E+02
     18.385  0.5723E+00  0.5191E+02
     18.482  0.9873E+00  0.5200E+02
     18.580  0.1480E+01  0.5215E+02
     18.678  0.1807E+01  0.5232E+02
     18.775  0.1697E+01  0.5249E+02
     18.873  0.1508E+01  0.5264E+02
     18.970  0.1490E+01  0.5278E+02
     19.068  0.1236E+01  0.5290E+02
     19.165  0.6824E+00  0.5297E+02
     19.263  0.4564E+00  0.5301E+02
     19.360  0.8847E+00  0.5310E+02
     19.458  0.1449E+01  0.5324E+02
     19.555  0.1481E+01  0.5338E+02
     19.653  0.1107E+01  0.5349E+02
     19.751  0.1129E+01  0.5360E+02
     19.848  0.1792E+01  0.5378E+02
     19.946  0.2484E+01  0.5402E+02
     20.043  0.2762E+01  0.5429E+02
     20.141  0.2548E+01  0.5454E+02
     20.238  0.1943E+01  0.5473E+02
     20.336  0.1605E+01  0.5488E+02
     20.433  0.1863E+01  0.5507E+02
     20.531  0.1995E+01  0.5526E+02
     20.628  0.1553E+01  0.5541E+02
     20.726  0.8934E+00  0.5550E+02
     20.824  0.4496E+00  0.5554E+02
     20.921  0.6165E+00  0.5560E+02
     21.019  0.1446E+01  0.5574E+02
     21.116  0.2192E+01  0.5596E+02
     21.214  0.2148E+01  0.5617E+02
     21.311  0.1671E+01  0.5633E+02
     21.409  0.1672E+01  0.5649E+02
     21.506  0.2311E+01  0.5672E+02
     21.604  0.2774E+01  0.5699E+02
     21.701  0.2509E+01  0.5723E+02
     21.799  0.1921E+01  0.5742E+02
     21.897  0.1562E+01  0.5757E+02
     21.994  0.1468E+01  0.5772E+02
     22.092  0.1541E+01  0.5787E+02
     22.189  0.1698E+01  0.5803E+02
     22.287  0.1780E+01  0.5821E+02
     22.384  0.1743E+01  0.5838E+02
     22.482  0.1483E+01  0.5852E+02
     22.579  0.1055E+01  0.5862E+02
     22.677  0.8743E+00  0.5871E+02
     22.774  0.1057E+01  0.5881E+02
     22.872  0.1331E+01  0.5894E+02
     22.970  0.1382E+01  0.5908E+02
     23.067  0.1042E+01  0.5918E+02
     23.165  0.5409E+00  0.5923E+02
     23.262  0.3185E+00  0.5926E+02
     23.360  0.3919E+00  0.5930E+02
     23.457  0.3961E+00  0.5934E+02
     23.555  0.2110E+00  0.5936E+02
     23.652  0.3518E-01  0.5936E+02
     23.750 -0.1890E-01  0.5936E+02
     23.847 -0.1227E-01  0.5936E+02
     23.945 -0.6684E-02  0.5936E+02
     24.043 -0.1810E-01  0.5936E+02
     24.140 -0.3482E-01  0.5935E+02
     24.238  0.2760E-01  0.5936E+02
     24.335  0.2843E+00  0.5938E+02
     24.433  0.6848E+00  0.5945E+02
     24.530  0.1035E+01  0.5955E+02
     24.628  0.1098E+01  0.5966E+02
     24.725  0.7243E+00  0.5973E+02
     24.823  0.2144E+00  0.5975E+02
     24.920 -0.4722E-01  0.5975E+02
     25.018 -0.8263E-01  0.5974E+02
     25.116  0.4176E-01  0.5974E+02
     25.213  0.4273E+00  0.5978E+02
     25.311  0.8798E+00  0.5987E+02
     25.408  0.8911E+00  0.5996E+02
     25.506  0.4481E+00  0.6000E+02
     25.603  0.6336E-01  0.6001E+02
     25.701 -0.4204E-01  0.6000E+02
     25.798 -0.2357E-01  0.6000E+02
     25.896 -0.5308E-02  0.6000E+02
     25.993 -0.6460E-03  0.6000E+02
     26.091 -0.4566E-04  0.6000E+02
     26.189 -0.1927E-05  0.6000E+02
     26.286 -0.4924E-07  0.6000E+02
     26.384 -0.7675E-09  0.6000E+02
     26.481 -0.7329E-11  0.6000E+02
     26.579 -0.4283E-13  0.6000E+02
     26.676 -0.2914E-15  0.6000E+02
     26.774  0.0000E+00  0.6000E+02
     26.871  0.0000E+00  0.6000E+02
     26.969  0.0000E+00  0.6000E+02
     27.066  0.0000E+00  0.6000E+02
     27.164  0.0000E+00  0.6000E+02
     27.262  0.0000E+00  0.6000E+02
     27.359  0.0000E+00  0.6000E+02
