    4    4    1    1
  0.1444527E+02  0.3866000E-09  0.3866000E-09  0.3866000E-09  0.5000000E-15
  1.000000000000000E-004
  CAR 
 unknown system                          
     40     27     30
 
  0.0000000E+00  0.0000000E+00  0.0000000E+00  0.8000000E-02
    1        0.095571   1.000000
    2        2.587918   1.000000
    3        3.534170   1.000000
    4        3.553228   1.000000
    5        3.632222   1.000000
    6        3.722735   1.000000
    7        3.724663   1.000000
    8        6.204156   1.000000
    9        6.208749   1.000000
   10        6.341750   1.000000
   11        7.451095   1.000000
   12        7.581792   1.000000
   13        8.238503   1.000000
   14        8.393158   1.000000
   15        8.555861   1.000012
   16        9.252229   0.381419
   17        9.409097  -0.015650
   18        9.505608  -0.031454
   19        9.783310  -0.000278
   20       10.254291  -0.000000
   21       10.828153  -0.000000
   22       11.380716  -0.000000
   23       11.388186  -0.000000
   24       11.401348  -0.000000
   25       17.897248   0.000000
   26       18.137051   0.000000
   27       19.756208   0.000000
   28       20.279145   0.000000
   29       20.424101   0.000000
   30       20.662030   0.000000
 
  0.2000000E+00  0.0000000E+00  0.0000000E+00  0.1600000E-01
    1        0.563244   1.000000
    2        2.890247   1.000000
    3        3.699528   1.000000
    4        3.712673   1.000000
    5        3.910194   1.000000
    6        3.992526   1.000000
    7        4.057509   1.000000
    8        5.982768   1.000000
    9        6.352489   1.000000
   10        6.506749   1.000000
   11        7.359758   1.000000
   12        7.502709   1.000000
   13        7.685113   1.000000
   14        7.866502   1.000000
   15        8.011543   1.000000
   16        8.228984   1.000000
   17        9.023808   1.025171
   18        9.113496   0.897299
   19        9.252711   0.379446
   20        9.474615  -0.035334
   21        9.721146  -0.001231
   22       10.826594  -0.000000
   23       13.175089  -0.000000
   24       13.181240  -0.000000
   25       17.901837   0.000000
   26       18.010501   0.000000
   27       20.374916   0.000000
   28       20.416992   0.000000
   29       20.576792   0.000000
   30       20.979470   0.000000
 
  0.0000000E+00  0.2000000E+00  0.0000000E+00  0.1600000E-01
    1        0.613851   1.000000
    2        2.909176   1.000000
    3        3.659930   1.000000
    4        3.787373   1.000000
    5        3.853187   1.000000
    6        3.990626   1.000000
    7        4.079860   1.000000
    8        6.141027   1.000000
    9        6.381704   1.000000
   10        6.383460   1.000000
   11        7.292471   1.000000
   12        7.618932   1.000000
   13        7.630354   1.000000
   14        7.774078   1.000000
   15        8.285464   1.000000
   16        8.757287   1.002363
   17        9.030405   1.021409
   18        9.214795   0.538445
   19        9.233704   0.458535
   20        9.306258   0.182091
   21        9.487938  -0.034228
   22        9.702506  -0.001842
   23       13.284695  -0.000000
   24       13.400582  -0.000000
   25       17.420016   0.000000
   26       18.672145   0.000000
   27       20.310634   0.000000
   28       20.372106   0.000000
   29       20.571686   0.000000
   30       21.282949   0.000000
 
  0.0000000E+00  0.0000000E+00  0.2000000E+00  0.1600000E-01
    1        0.615518   1.000000
    2        2.921283   1.000000
    3        3.813177   1.000000
    4        3.861484   1.000000
    5        3.894887   1.000000
    6        3.907265   1.000000
    7        3.917217   1.000000
    8        5.961931   1.000000
    9        6.353448   1.000000
   10        6.507465   1.000000
   11        7.299459   1.000000
   12        7.587155   1.000000
   13        7.595806   1.000000
   14        7.948083   1.000000
   15        8.093917   1.000000
   16        8.535814   1.000006
   17        8.857844   1.013296
   18        9.140870   0.819980
   19        9.175623   0.697795
   20        9.312291   0.163401
   21        9.734945  -0.000901
   22       10.239985  -0.000000
   23       13.256864  -0.000000
   24       13.366591  -0.000000
   25       17.105791   0.000000
   26       18.880309   0.000000
   27       20.402263   0.000000
   28       20.425294   0.000000
   29       20.690362   0.000000
   30       21.204402   0.000000
 
  0.4000000E+00  0.0000000E+00  0.0000000E+00  0.1600000E-01
    1        1.677607   1.000000
    2        3.499302   1.000000
    3        3.799555   1.000000
    4        4.064266   1.000000
    5        4.713826   1.000000
    6        4.752496   1.000000
    7        4.845014   1.000000
    8        5.520834   1.000000
    9        6.045130   1.000000
   10        6.145095   1.000000
   11        6.857754   1.000000
   12        6.933170   1.000000
   13        6.970080   1.000000
   14        7.159616   1.000000
   15        7.342619   1.000000
   16        7.590934   1.000000
   17        8.214311   1.000000
   18        8.218774   1.000000
   19        8.251407   1.000000
   20        8.558847   1.000014
   21        9.352336   0.061937
   22       10.824396  -0.000000
   23       15.726859   0.000000
   24       15.802441   0.000000
   25       17.051607   0.000000
   26       18.028878   0.000000
   27       18.596139   0.000000
   28       18.718477   0.000000
   29       19.152088   0.000000
   30       21.810645   0.000000
 
  0.0000000E+00  0.4000000E+00  0.0000000E+00  0.1600000E-01
    1        1.987708   1.000000
    2        3.295846   1.000000
    3        3.784045   1.000000
    4        4.118503   1.000000
    5        4.650793   1.000000
    6        4.699963   1.000000
    7        4.965621   1.000000
    8        5.727539   1.000000
    9        6.344189   1.000000
   10        6.368574   1.000000
   11        6.817260   1.000000
   12        6.904173   1.000000
   13        6.922829   1.000000
   14        7.091208   1.000000
   15        7.568149   1.000000
   16        7.885622   1.000000
   17        7.894718   1.000000
   18        8.094914   1.000000
   19        8.198374   1.000000
   20        8.460334   1.000000
   21        9.152246   0.782668
   22        9.470718  -0.035444
   23       15.908071   0.000000
   24       15.958662   0.000000
   25       16.679848   0.000000
   26       18.464542   0.000000
   27       18.494884   0.000000
   28       18.618561   0.000000
   29       20.476255   0.000000
   30       20.724250   0.000000
 
  0.0000000E+00  0.0000000E+00  0.4000000E+00  0.1600000E-01
    1        2.002439   1.000000
    2        3.294293   1.000000
    3        3.993246   1.000000
    4        4.355836   1.000000
    5        4.641528   1.000000
    6        4.738214   1.000000
    7        4.751107   1.000000
    8        5.411225   1.000000
    9        6.037339   1.000000
   10        6.153451   1.000000
   11        6.825820   1.000000
   12        6.980872   1.000000
   13        6.986977   1.000000
   14        7.120900   1.000000
   15        7.392947   1.000000
   16        7.721453   1.000000
   17        8.027215   1.000000
   18        8.057240   1.000000
   19        8.433584   1.000000
   20        8.506220   1.000002
   21        8.945788   1.032113
   22       10.219597  -0.000000
   23       15.884121   0.000000
   24       16.015618   0.000000
   25       16.237447   0.000000
   26       18.436903   0.000000
   27       18.711826   0.000000
   28       18.984542   0.000000
   29       20.070315   0.000000
   30       21.081580   0.000000
 
  0.2000000E+00  0.2000000E+00  0.0000000E+00  0.3200000E-01
    1        1.059341   1.000000
    2        3.198909   1.000000
    3        3.931330   1.000000
    4        3.940183   1.000000
    5        4.111514   1.000000
    6        4.115723   1.000000
    7        4.394916   1.000000
    8        5.924179   1.000000
    9        6.404721   1.000000
   10        6.537384   1.000000
   11        7.060542   1.000000
   12        7.256674   1.000000
   13        7.286423   1.000000
   14        7.352832   1.000000
   15        7.810679   1.000000
   16        7.998246   1.000000
   17        8.365056   1.000000
   18        8.926372   1.028201
   19        8.982961   1.035394
   20        9.069785   0.982119
   21        9.742496  -0.000757
   22       10.899471  -0.000000
   23       11.886337  -0.000000
   24       14.549235  -0.000000
   25       16.952223   0.000000
   26       19.014245   0.000000
   27       20.032835   0.000000
   28       20.410101   0.000000
   29       21.032630   0.000000
   30       21.669328   0.000000
 
  0.0000000E+00  0.2000000E+00  0.2000000E+00  0.3200000E-01
    1        1.084916   1.000000
    2        3.234084   1.000000
    3        3.916952   1.000000
    4        3.985391   1.000000
    5        4.047023   1.000000
    6        4.228616   1.000000
    7        4.340041   1.000000
    8        5.904751   1.000000
    9        6.407626   1.000000
   10        6.539170   1.000000
   11        7.082492   1.000000
   12        7.238906   1.000000
   13        7.301082   1.000000
   14        7.328610   1.000000
   15        7.774458   1.000000
   16        8.107329   1.000000
   17        8.461816   1.000000
   18        8.728112   1.001272
   19        8.937266   1.030500
   20        8.941061   1.031243
   21        9.571438  -0.016934
   22       10.931083  -0.000000
   23       12.249952  -0.000000
   24       14.453704  -0.000000
   25       16.812601   0.000000
   26       19.062359   0.000000
   27       19.515572   0.000000
   28       20.940202   0.000000
   29       21.190716   0.000000
   30       21.881832   0.000000
 
  0.2000000E+00  0.0000000E+00  0.2000000E+00  0.3200000E-01
    1        1.059243   1.000000
    2        3.214246   1.000000
    3        3.942267   1.000000
    4        3.958830   1.000000
    5        4.071750   1.000000
    6        4.230135   1.000000
    7        4.330428   1.000000
    8        5.787216   1.000000
    9        6.464774   1.000000
   10        6.567357   1.000000
   11        7.031781   1.000000
   12        7.242851   1.000000
   13        7.244959   1.000000
   14        7.309727   1.000000
   15        7.806289   1.000000
   16        7.856283   1.000000
   17        8.238683   1.000000
   18        9.014817   1.029217
   19        9.076541   0.972053
   20        9.273425   0.297364
   21        9.861625  -0.000031
   22       11.151787  -0.000000
   23       11.547087  -0.000000
   24       14.541971  -0.000000
   25       16.919689   0.000000
   26       18.943549   0.000000
   27       19.976339   0.000000
   28       20.532650   0.000000
   29       21.105192   0.000000
   30       21.805022   0.000000
 
  0.4000000E+00  0.2000000E+00  0.0000000E+00  0.3200000E-01
    1        2.141772   1.000000
    2        3.774266   1.000000
    3        4.125450   1.000000
    4        4.304661   1.000000
    5        4.679770   1.000000
    6        4.842637   1.000000
    7        5.033062   1.000000
    8        5.477282   1.000000
    9        5.685522   1.000000
   10        6.098328   1.000000
   11        6.368220   1.000000
   12        6.487137   1.000000
   13        6.943818   1.000000
   14        7.197313   1.000000
   15        7.340785   1.000000
   16        7.683853   1.000000
   17        7.858975   1.000000
   18        8.421367   1.000000
   19        8.460567   1.000000
   20        8.955145   1.033612
   21        9.569157  -0.017415
   22        9.829411  -0.000080
   23       13.136927  -0.000000
   24       15.187238   0.000000
   25       16.919646   0.000000
   26       18.082940   0.000000
   27       19.551604   0.000000
   28       19.818558   0.000000
   29       21.818787   0.000000
   30       23.074968   0.000000
 
  0.0000000E+00  0.4000000E+00  0.2000000E+00  0.3200000E-01
    1        2.341254   1.000000
    2        3.637740   1.000000
    3        4.034433   1.000000
    4        4.312293   1.000000
    5        4.603727   1.000000
    6        4.820620   1.000000
    7        5.159564   1.000000
    8        5.633483   1.000000
    9        5.796005   1.000000
   10        6.275657   1.000000
   11        6.350335   1.000000
   12        6.501869   1.000000
   13        6.933002   1.000000
   14        7.159885   1.000000
   15        7.630515   1.000000
   16        7.709419   1.000000
   17        7.783727   1.000000
   18        8.201538   1.000000
   19        8.401784   1.000000
   20        8.970873   1.035221
   21        9.085084   0.957774
   22        9.392317  -0.000054
   23       13.598478  -0.000000
   24       15.148330   0.000000
   25       16.786989   0.000000
   26       18.362041   0.000000
   27       19.380639   0.000000
   28       19.565168   0.000000
   29       21.670281   0.000000
   30       23.301411   0.000000
 
  0.2000000E+00  0.0000000E+00  0.4000000E+00  0.3200000E-01
    1        2.377502   1.000000
    2        3.647360   1.000000
    3        4.252423   1.000000
    4        4.450119   1.000000
    5        4.637152   1.000000
    6        4.962186   1.000000
    7        4.964008   1.000000
    8        5.292515   1.000000
    9        5.577684   1.000000
   10        6.155982   1.000000
   11        6.427334   1.000000
   12        6.517284   1.000000
   13        6.968373   1.000000
   14        7.205743   1.000000
   15        7.364446   1.000000
   16        7.698235   1.000000
   17        7.998378   1.000000
   18        8.303839   1.000000
   19        8.473697   1.000001
   20        8.707310   1.000793
   21        9.301470   0.197516
   22        9.467190  -0.035447
   23       13.465132  -0.000000
   24       15.189688   0.000000
   25       16.833179   0.000000
   26       17.952494   0.000000
   27       19.366585   0.000000
   28       20.129197   0.000000
   29       21.937969   0.000000
   30       22.954690   0.000000
 
 -0.2000000E+00  0.4000000E+00  0.0000000E+00  0.3200000E-01
    1        2.375607   1.000000
    2        3.626293   1.000000
    3        4.082763   1.000000
    4        4.327202   1.000000
    5        4.622661   1.000000
    6        4.783149   1.000000
    7        5.143604   1.000000
    8        5.637159   1.000000
    9        5.967783   1.000000
   10        6.259001   1.000000
   11        6.268368   1.000000
   12        6.483218   1.000000
   13        6.932389   1.000000
   14        7.191632   1.000000
   15        7.538669   1.000000
   16        7.734880   1.000000
   17        7.816311   1.000000
   18        8.219848   1.000000
   19        8.474732   1.000001
   20        8.880910   1.017903
   21        8.985668   1.035275
   22        9.254483   0.372221
   23       13.513481  -0.000000
   24       15.180366   0.000000
   25       16.831808   0.000000
   26       18.327591   0.000000
   27       19.350191   0.000000
   28       19.751499   0.000000
   29       21.981489   0.000000
   30       22.978667   0.000000
 
 -0.4000000E+00  0.0000000E+00  0.2000000E+00  0.3200000E-01
    1        2.137636   1.000000
    2        3.812145   1.000000
    3        4.084937   1.000000
    4        4.274075   1.000000
    5        4.629569   1.000000
    6        4.886654   1.000000
    7        5.081224   1.000000
    8        5.426258   1.000000
    9        5.599232   1.000000
   10        6.162171   1.000000
   11        6.435052   1.000000
   12        6.529181   1.000000
   13        6.954293   1.000000
   14        7.207282   1.000000
   15        7.301766   1.000000
   16        7.673023   1.000000
   17        8.079561   1.000000
   18        8.171387   1.000000
   19        8.554415   1.000012
   20        8.981088   1.035440
   21        9.536822  -0.024702
   22        9.783390  -0.000277
   23       13.116418  -0.000000
   24       15.252101   0.000000
   25       16.871150   0.000000
   26       18.047606   0.000000
   27       19.455469   0.000000
   28       19.753330   0.000000
   29       21.929132   0.000000
   30       22.960144   0.000000
 
  0.0000000E+00  0.2000000E+00  0.4000000E+00  0.3200000E-01
    1        2.349115   1.000000
    2        3.620921   1.000000
    3        4.254242   1.000000
    4        4.481182   1.000000
    5        4.652451   1.000000
    6        4.925402   1.000000
    7        4.934250   1.000000
    8        5.355751   1.000000
    9        5.567411   1.000000
   10        6.103858   1.000000
   11        6.342460   1.000000
   12        6.516557   1.000000
   13        6.969965   1.000000
   14        7.162372   1.000000
   15        7.459958   1.000000
   16        7.718259   1.000000
   17        7.781211   1.000000
   18        8.321961   1.000000
   19        8.628188   1.000105
   20        8.648938   1.000185
   21        9.483792  -0.034681
   22        9.584649  -0.014286
   23       13.559875  -0.000000
   24       15.091881   0.000000
   25       16.844241   0.000000
   26       18.006327   0.000000
   27       19.486324   0.000000
   28       20.007286   0.000000
   29       21.546753   0.000000
   30       23.414361   0.000000
 
  0.4000000E+00  0.4000000E+00  0.0000000E+00  0.3200000E-01
    1        3.286773   1.000000
    2        4.202466   1.000000
    3        4.476417   1.000000
    4        4.814882   1.000000
    5        4.876204   1.000000
    6        5.091103   1.000000
    7        5.212704   1.000000
    8        5.331998   1.000000
    9        5.390498   1.000000
   10        5.870808   1.000000
   11        6.004649   1.000000
   12        6.278700   1.000000
   13        6.922571   1.000000
   14        7.094978   1.000000
   15        7.110831   1.000000
   16        7.342569   1.000000
   17        7.535356   1.000000
   18        8.113286   1.000000
   19        8.423044   1.000000
   20        8.457955   1.000000
   21        9.178965   0.684883
   22       10.160395  -0.000000
   23       11.635041  -0.000000
   24       12.967279  -0.000000
   25       18.818408   0.000000
   26       18.947293   0.000000
   27       20.499983   0.000000
   28       21.178872   0.000000
   29       21.231403   0.000000
   30       21.651813   0.000000
 
  0.0000000E+00  0.4000000E+00  0.4000000E+00  0.3200000E-01
    1        3.181271   1.000000
    2        3.988710   1.000000
    3        4.374881   1.000000
    4        4.774200   1.000000
    5        4.993488   1.000000
    6        5.118887   1.000000
    7        5.138518   1.000000
    8        5.411796   1.000000
    9        5.427463   1.000000
   10        5.894951   1.000000
   11        6.093684   1.000000
   12        6.277140   1.000000
   13        6.919645   1.000000
   14        7.079551   1.000000
   15        7.165064   1.000000
   16        7.241668   1.000000
   17        7.433319   1.000000
   18        8.061883   1.000000
   19        8.645840   1.000170
   20        8.699267   1.000656
   21        9.242360   0.422220
   22        9.993968  -0.000000
   23       12.197626  -0.000000
   24       13.027930  -0.000000
   25       18.562304   0.000000
   26       18.689877   0.000000
   27       20.380113   0.000000
   28       20.516457   0.000000
   29       21.052302   0.000000
   30       22.105874   0.000000
 
  0.4000000E+00  0.0000000E+00  0.4000000E+00  0.3200000E-01
    1        3.254682   1.000000
    2        4.356597   1.000000
    3        4.428723   1.000000
    4        4.685800   1.000000
    5        4.764419   1.000000
    6        5.008368   1.000000
    7        5.059467   1.000000
    8        5.274274   1.000000
    9        5.582016   1.000000
   10        6.023401   1.000000
   11        6.152972   1.000000
   12        6.384547   1.000000
   13        6.875561   1.000000
   14        7.097199   1.000000
   15        7.103345   1.000000
   16        7.350845   1.000000
   17        7.834975   1.000000
   18        7.979916   1.000000
   19        8.218793   1.000000
   20        8.323226   1.000000
   21        9.369815   0.030211
   22       10.559245  -0.000000
   23       11.182297  -0.000000
   24       12.855149  -0.000000
   25       18.726780   0.000000
   26       18.902593   0.000000
   27       20.693778   0.000000
   28       21.016927   0.000000
   29       21.420966   0.000000
   30       21.478500   0.000000
 
  0.2000000E+00  0.2000000E+00  0.2000000E+00  0.6400000E-01
    1        1.473490   1.000000
    2        3.433286   1.000000
    3        4.002751   1.000000
    4        4.140959   1.000000
    5        4.195831   1.000000
    6        4.567020   1.000000
    7        4.693579   1.000000
    8        5.737327   1.000000
    9        6.462745   1.000000
   10        6.552829   1.000000
   11        6.669776   1.000000
   12        6.860255   1.000000
   13        7.044810   1.000000
   14        7.309266   1.000000
   15        7.416680   1.000000
   16        7.634567   1.000000
   17        8.333488   1.000000
   18        8.412658   1.000000
   19        8.549163   1.000010
   20        9.118892   0.883516
   21        9.848266  -0.000046
   22       11.840578  -0.000000
   23       12.503879  -0.000000
   24       12.725756  -0.000000
   25       17.655745   0.000000
   26       17.894007   0.000000
   27       18.609224   0.000000
   28       21.110190   0.000000
   29       21.519097   0.000000
   30       21.683148   0.000000
 
  0.4000000E+00  0.2000000E+00  0.2000000E+00  0.6400000E-01
    1        2.394764   1.000000
    2        3.729257   1.000000
    3        4.220095   1.000000
    4        4.560742   1.000000
    5        4.575525   1.000000
    6        4.854407   1.000000
    7        5.364982   1.000000
    8        5.553602   1.000000
    9        5.822586   1.000000
   10        6.022043   1.000000
   11        6.387258   1.000000
   12        6.493949   1.000000
   13        6.695384   1.000000
   14        7.049924   1.000000
   15        7.127172   1.000000
   16        7.578733   1.000000
   17        8.137113   1.000000
   18        8.219992   1.000000
   19        8.658272   1.000236
   20        9.044750   1.010647
   21        9.532159  -0.025777
   22        9.806024  -0.000153
   23       13.816892  -0.000000
   24       13.833934  -0.000000
   25       15.538993   0.000000
   26       16.275507   0.000000
   27       20.114406   0.000000
   28       21.501982   0.000000
   29       22.090063   0.000000
   30       22.352240   0.000000
 
  0.2000000E+00  0.4000000E+00  0.2000000E+00  0.6400000E-01
    1        2.560327   1.000000
    2        3.632142   1.000000
    3        4.033186   1.000000
    4        4.525842   1.000000
    5        4.688323   1.000000
    6        4.890985   1.000000
    7        5.543484   1.000000
    8        5.621908   1.000000
    9        5.805644   1.000000
   10        6.111919   1.000000
   11        6.476763   1.000000
   12        6.513818   1.000000
   13        6.618514   1.000000
   14        7.046190   1.000000
   15        7.202945   1.000000
   16        7.302491   1.000000
   17        8.198875   1.000000
   18        8.276290   1.000000
   19        8.459004   1.000000
   20        8.963555   1.034638
   21        9.389355   0.003289
   22        9.674088  -0.003274
   23       13.818756  -0.000000
   24       14.048759  -0.000000
   25       15.585100   0.000000
   26       16.151344   0.000000
   27       20.194451   0.000000
   28       21.572787   0.000000
   29       22.228044   0.000000
   30       22.394226   0.000000
 
  0.2000000E+00  0.2000000E+00  0.4000000E+00  0.6400000E-01
    1        2.564138   1.000000
    2        3.632241   1.000000
    3        4.179139   1.000000
    4        4.515121   1.000000
    5        4.703409   1.000000
    6        5.069304   1.000000
    7        5.204905   1.000000
    8        5.536889   1.000000
    9        5.770465   1.000000
   10        5.997566   1.000000
   11        6.377520   1.000000
   12        6.498794   1.000000
   13        6.703024   1.000000
   14        7.070939   1.000000
   15        7.167755   1.000000
   16        7.451292   1.000000
   17        8.213124   1.000000
   18        8.238811   1.000000
   19        8.582588   1.000028
   20        8.903778   1.023040
   21        9.470358  -0.035449
   22        9.754028  -0.000575
   23       13.823973  -0.000000
   24       13.989881  -0.000000
   25       15.569428   0.000000
   26       16.241900   0.000000
   27       20.101170   0.000000
   28       21.349607   0.000000
   29       22.190612   0.000000
   30       22.457195   0.000000
 
  0.4000000E+00  0.4000000E+00  0.2000000E+00  0.6400000E-01
    1        3.048024   1.000000
    2        3.554984   1.000000
    3        3.888285   1.000000
    4        4.269257   1.000000
    5        5.201479   1.000000
    6        5.503832   1.000000
    7        5.741737   1.000000
    8        5.923092   1.000000
    9        6.082912   1.000000
   10        6.134440   1.000000
   11        6.342195   1.000000
   12        6.517507   1.000000
   13        6.610784   1.000000
   14        6.732645   1.000000
   15        6.889583   1.000000
   16        6.967108   1.000000
   17        7.948289   1.000000
   18        8.382199   1.000000
   19        8.781192   1.003779
   20        9.109795   0.906329
   21        9.243300   0.418301
   22       10.281584  -0.000000
   23       11.516365  -0.000000
   24       12.720143  -0.000000
   25       15.808503   0.000000
   26       17.479998   0.000000
   27       17.911335   0.000000
   28       19.889804   0.000000
   29       22.762270   0.000000
   30       24.550181   0.000000
 
  0.2000000E+00  0.4000000E+00  0.4000000E+00  0.6400000E-01
    1        3.031817   1.000000
    2        3.594539   1.000000
    3        3.657508   1.000000
    4        4.281310   1.000000
    5        5.206841   1.000000
    6        5.503352   1.000000
    7        5.729456   1.000000
    8        5.973843   1.000000
    9        6.094814   1.000000
   10        6.131686   1.000000
   11        6.335682   1.000000
   12        6.524660   1.000000
   13        6.619545   1.000000
   14        6.733372   1.000000
   15        6.886227   1.000000
   16        6.954300   1.000000
   17        7.989417   1.000000
   18        8.413295   1.000000
   19        8.905483   1.023434
   20        9.093332   0.942301
   21        9.221048   0.512031
   22       10.163188  -0.000000
   23       11.996840  -0.000000
   24       12.906256  -0.000000
   25       15.548675   0.000000
   26       17.064071   0.000000
   27       17.940656   0.000000
   28       19.862612   0.000000
   29       22.852369   0.000000
   30       24.396089   0.000000
 
  0.4000000E+00  0.2000000E+00  0.4000000E+00  0.6400000E-01
    1        3.041326   1.000000
    2        3.585993   1.000000
    3        3.924744   1.000000
    4        4.110247   1.000000
    5        5.172858   1.000000
    6        5.404545   1.000000
    7        5.715678   1.000000
    8        6.078460   1.000000
    9        6.192790   1.000000
   10        6.225869   1.000000
   11        6.438919   1.000000
   12        6.464775   1.000000
   13        6.608973   1.000000
   14        6.790951   1.000000
   15        6.842262   1.000000
   16        6.901656   1.000000
   17        8.105552   1.000000
   18        8.146975   1.000000
   19        8.606354   1.000057
   20        9.239838   0.432759
   21        9.369401   0.030876
   22       10.650171  -0.000000
   23       11.067743  -0.000000
   24       12.657841  -0.000000
   25       15.780795   0.000000
   26       17.518765   0.000000
   27       17.898923   0.000000
   28       19.950337   0.000000
   29       22.625913   0.000000
   30       24.626864   0.000000
 
  0.4000000E+00  0.4000000E+00  0.4000000E+00  0.6400000E-01
    1        2.918168   1.000000
    2        3.044661   1.000000
    3        3.290992   1.000000
    4        3.661270   1.000000
    5        5.635092   1.000000
    6        5.750055   1.000000
    7        5.832286   1.000000
    8        6.119403   1.000000
    9        6.192317   1.000000
   10        6.423720   1.000000
   11        6.430174   1.000000
   12        6.624607   1.000000
   13        7.292886   1.000000
   14        7.355354   1.000000
   15        7.513080   1.000000
   16        7.845611   1.000000
   17        8.296086   1.000000
   18        8.709673   1.000838
   19        8.772366   1.003190
   20        9.191501   0.635081
   21        9.727933  -0.001057
   22       10.498852  -0.000000
   23       10.886981  -0.000000
   24       11.111560  -0.000000
   25       14.995210   0.000000
   26       15.385058   0.000000
   27       16.188790   0.000000
   28       17.709005   0.000000
   29       25.265884   0.000000
   30       25.359084   0.000000
