 vasp.6.2.0 18Jan21 (build Mar 17 2021 09:06:54) complex                        
  
 executed on             LinuxIFC date 2021.06.11  11:56:53
 serial version


--------------------------------------------------------------------------------------------------------


 INCAR:
   ENCUT = 280.000000
   SIGMA = 0.200000
   EDIFF = 1.00e-06
   GGA = PE
   PREC = normal
   IBRION = -1
   ICHARG = 1
   ISMEAR = 1
   KPAR = 1
   NBANDS = 30
   NSW = 0
   NCORE = 1
   LCHARG = .TRUE.

 POTCAR:    PAW_PBE Pd 04Jan2005                  
 POTCAR:    PAW_PBE Ir 06Sep2000                  
 POTCAR:    PAW_PBE Pt 04Feb2005                  
 POTCAR:    PAW_PBE Cu 22Jun2005                  
 POTCAR:    PAW_PBE Pd 04Jan2005                  
   SHA256 =  dd6f6f02930356371984e2b707ff5e456046761dc76b07c1eba30abd15eb3c39 Pd/POTCAR             
   COPYR  = (c) Copyright 04Jan2005 Georg Kresse                                                    
   COPYR  = This file is part of the software VASP. Any use, copying, and all other rights are regul
   COPYR  = If you do not have a valid VASP license, you may not use, copy or distribute this file. 
   VRHFIN =Pd : s1 d9                                                                               
   LEXCH  = PE                                                                                      
   EATOM  =   809.7530 eV,   59.5152 Ry                                                             
                                                                                                    
   TITEL  = PAW_PBE Pd 04Jan2005                                                                    
   LULTRA =        F    use ultrasoft PP ?                                                          
   IUNSCR =        1    unscreen: 0-lin 1-nonlin 2-no                                               
   RPACOR =    2.000    partial core radius                                                         
   POMASS =  106.420; ZVAL   =   10.000    mass and valenz                                          
   RCORE  =    2.600    outmost cutoff radius                                                       
   RWIGS  =    2.710; RWIGS  =    1.434    wigner-seitz radius (au A)                               
   ENMAX  =  250.925; ENMIN  =  188.194 eV                                                          
   ICORE  =        3    local potential                                                             
   LCOR   =        T    correct aug charges                                                         
   LPAW   =        T    paw PP                                                                      
   EAUG   =  416.230                                                                                
   DEXC   =    0.000                                                                                
   RMAX   =    2.653    core radius for proj-oper                                                   
   RAUG   =    1.300    factor for augmentation sphere                                              
   RDEP   =    2.734    radius for radial grids                                                     
   RDEPT  =    2.103    core radius for aug-charge                                                  
                                                                                                    
   Atomic configuration                                                                             
   12 entries                                                                                       
     n  l   j            E        occ.                                                              
     1  0  0.50    -24164.6631   2.0000                                                             
     2  0  0.50     -3530.9218   2.0000                                                             
     2  1  1.50     -3165.6822   6.0000                                                             
     3  0  0.50      -639.4577   2.0000                                                             
     3  1  1.50      -519.4532   6.0000                                                             
     3  2  2.50      -328.9757  10.0000                                                             
     4  0  0.50       -88.7014   2.0000                                                             
     4  1  1.50       -54.4540   6.0000                                                             
     4  2  2.50        -6.6878   9.0000                                                             
     5  0  0.50        -4.3543   1.0000                                                             
     5  1  0.50        -1.3606   0.0000                                                             
     4  3  2.50        -1.3606   0.0000                                                             
   Description                                                                                      
     l       E           TYP  RCUT    TYP  RCUT                                                     
     2     -6.6878251     23  2.400                                                                 
     2     -8.0484077     23  2.400                                                                 
     0     -4.3542939     23  2.400                                                                 
     0      4.3406793     23  2.400                                                                 
     1     -4.0817478     23  2.600                                                                 
     1     15.8380318     23  2.600                                                                 
     3     -4.0817478     23  2.400                                                                 
  local pseudopotential read in
  partial core-charges read in
  partial kinetic energy density read in
  atomic valenz-charges read in
  non local Contribution for L=           2  read in
    real space projection operators read in
  non local Contribution for L=           2  read in
    real space projection operators read in
  non local Contribution for L=           0  read in
    real space projection operators read in
  non local Contribution for L=           0  read in
    real space projection operators read in
  non local Contribution for L=           1  read in
    real space projection operators read in
  non local Contribution for L=           1  read in
    real space projection operators read in
    PAW grid and wavefunctions read in
 
   number of l-projection  operators is LMAX  =           6
   number of lm-projection operators is LMMAX =          18
 
 POTCAR:    PAW_PBE Ir 06Sep2000                  
   SHA256 =  7c6af8d4d487b237782eb51e6f62977b27a1da78c3c96acd1cebefd6c308f120 Ir/POTCAR             
   COPYR  = (c) Copyright 06Sep2000 Georg Kresse                                                    
   COPYR  = This file is part of the software VASP. Any use, copying, and all other rights are regul
   COPYR  = If you do not have a valid VASP license, you may not use, copy or distribute this file. 
   VRHFIN =Ir: s1d8                                                                                 
   LEXCH  = PE                                                                                      
   EATOM  =   560.1833 eV,   41.1723 Ry                                                             
                                                                                                    
   TITEL  = PAW_PBE Ir 06Sep2000                                                                    
   LULTRA =        F    use ultrasoft PP ?                                                          
   IUNSCR =        1    unscreen: 0-lin 1-nonlin 2-no                                               
   RPACOR =    2.250    partial core radius                                                         
   POMASS =  192.220; ZVAL   =    9.000    mass and valenz                                          
   RCORE  =    2.600    outmost cutoff radius                                                       
   RWIGS  =    2.690; RWIGS  =    1.423    wigner-seitz radius (au A)                               
   ENMAX  =  210.864; ENMIN  =  158.148 eV                                                          
   RCLOC  =    1.857    cutoff for local pot                                                        
   LCOR   =        T    correct aug charges                                                         
   LPAW   =        T    paw PP                                                                      
   EAUG   =  318.962                                                                                
   DEXC   =    0.000                                                                                
   RMAX   =    2.667    core radius for proj-oper                                                   
   RAUG   =    1.300    factor for augmentation sphere                                              
   RDEP   =    2.748    radius for radial grids                                                     
   RDEPT  =    2.300    core radius for aug-charge                                                  
                                                                                                    
   Atomic configuration                                                                             
   16 entries                                                                                       
     n  l   j            E        occ.                                                              
     1  0  0.50    -76100.0449   2.0000                                                             
     2  0  0.50    -13308.1683   2.0000                                                             
     2  1  1.50    -11558.0021   6.0000                                                             
     3  0  0.50     -3110.7274   2.0000                                                             
     3  1  1.50     -2599.2109   6.0000                                                             
     3  2  2.50     -2037.1515  10.0000                                                             
     4  0  0.50      -661.6001   2.0000                                                             
     4  1  1.50      -493.8981   6.0000                                                             
     4  2  2.50      -288.1909  10.0000                                                             
     4  3  3.50       -59.5718  14.0000                                                             
     5  0  0.50       -95.3879   2.0000                                                             
     5  1  1.50       -52.2747   6.0000                                                             
     5  2  2.50        -5.4180   8.0000                                                             
     6  0  0.50        -5.5479   1.0000                                                             
     6  1  1.50        -6.8029   0.0000                                                             
     5  3  2.50        -1.3606   0.0000                                                             
   Description                                                                                      
     l       E           TYP  RCUT    TYP  RCUT                                                     
     2     -5.4179967     23  2.600                                                                 
     2     -6.7785793     23  2.600                                                                 
     0     -5.5478636     23  2.600                                                                 
     0      2.2542272     23  2.600                                                                 
     1     -2.7211652     23  2.600                                                                 
     1     20.4087390     23  2.600                                                                 
  local pseudopotential read in
  partial core-charges read in
  partial kinetic energy density read in
  atomic valenz-charges read in
  non local Contribution for L=           2  read in
    real space projection operators read in
  non local Contribution for L=           2  read in
    real space projection operators read in
  non local Contribution for L=           0  read in
    real space projection operators read in
  non local Contribution for L=           0  read in
    real space projection operators read in
  non local Contribution for L=           1  read in
    real space projection operators read in
  non local Contribution for L=           1  read in
    real space projection operators read in
    PAW grid and wavefunctions read in
 
   number of l-projection  operators is LMAX  =           6
   number of lm-projection operators is LMMAX =          18
 
 POTCAR:    PAW_PBE Pt 04Feb2005                  
   SHA256 =  3ed90460adef76debcff1cfb73ee1349b515b1a3db03439735b44de3a8db7dc8 Pt/POTCAR             
   COPYR  = (c) Copyright 04Feb2005 Georg Kresse                                                    
   COPYR  = This file is part of the software VASP. Any use, copying, and all other rights are regul
   COPYR  = If you do not have a valid VASP license, you may not use, copy or distribute this file. 
   VRHFIN =Pt: s1d9                                                                                 
   LEXCH  = PE                                                                                      
   EATOM  =   729.1176 eV,   53.5886 Ry                                                             
                                                                                                    
   TITEL  = PAW_PBE Pt 04Feb2005                                                                    
   LULTRA =        F    use ultrasoft PP ?                                                          
   IUNSCR =        1    unscreen: 0-lin 1-nonlin 2-no                                               
   RPACOR =    2.330    partial core radius                                                         
   POMASS =  195.080; ZVAL   =   10.000    mass and valenz                                          
   RCORE  =    2.600    outmost cutoff radius                                                       
   RWIGS  =    2.750; RWIGS  =    1.455    wigner-seitz radius (au A)                               
   ENMAX  =  230.283; ENMIN  =  172.712 eV                                                          
   ICORE  =        3    local potential                                                             
   LCOR   =        T    correct aug charges                                                         
   LPAW   =        T    paw PP                                                                      
   EAUG   =  358.966                                                                                
   DEXC   =    0.000                                                                                
   RMAX   =    2.658    core radius for proj-oper                                                   
   RAUG   =    1.300    factor for augmentation sphere                                              
   RDEP   =    2.761    radius for radial grids                                                     
   RDEPT  =    2.203    core radius for aug-charge                                                  
                                                                                                    
   Atomic configuration                                                                             
   16 entries                                                                                       
     n  l   j            E        occ.                                                              
     1  0  0.50    -78401.1885   2.0000                                                             
     2  0  0.50    -13770.7750   2.0000                                                             
     2  1  1.50    -11931.0468   6.0000                                                             
     3  0  0.50     -3234.7234   2.0000                                                             
     3  1  1.50     -2699.2216   6.0000                                                             
     3  2  2.50     -2119.5714  10.0000                                                             
     4  0  0.50      -695.1528   2.0000                                                             
     4  1  1.50      -519.6034   6.0000                                                             
     4  2  2.50      -306.6786  10.0000                                                             
     4  3  3.50       -70.1041  14.0000                                                             
     5  0  0.50      -101.7747   2.0000                                                             
     5  1  1.50       -55.9873   6.0000                                                             
     5  2  2.50        -6.1423   9.0000                                                             
     6  0  0.50        -5.6573   1.0000                                                             
     6  1  1.50        -6.8029   0.0000                                                             
     5  3  2.50        -1.3606   0.0000                                                             
   Description                                                                                      
     l       E           TYP  RCUT    TYP  RCUT                                                     
     2     -6.1423404     23  2.500                                                                 
     2     -7.5029230     23  2.500                                                                 
     0     -5.6573207     23  2.500                                                                 
     0      0.7416693     23  2.500                                                                 
     1     -2.7211652     23  2.600                                                                 
     1     20.4087390     23  2.600                                                                 
     3     -1.3605826     23  2.500                                                                 
  local pseudopotential read in
  partial core-charges read in
  partial kinetic energy density read in
  atomic valenz-charges read in
  non local Contribution for L=           2  read in
    real space projection operators read in
  non local Contribution for L=           2  read in
    real space projection operators read in
  non local Contribution for L=           0  read in
    real space projection operators read in
  non local Contribution for L=           0  read in
    real space projection operators read in
  non local Contribution for L=           1  read in
    real space projection operators read in
  non local Contribution for L=           1  read in
    real space projection operators read in
    PAW grid and wavefunctions read in
 
   number of l-projection  operators is LMAX  =           6
   number of lm-projection operators is LMMAX =          18
 
 POTCAR:    PAW_PBE Cu 22Jun2005                  
   SHA256 =  0e71e558f37a4e8407882b4609ceaae59938afaad9ced71dfe8490308a0ab630 Cu/POTCAR             
   COPYR  = (c) Copyright 22Jun2005 Georg Kresse                                                    
   COPYR  = This file is part of the software VASP. Any use, copying, and all other rights are regul
   COPYR  = If you do not have a valid VASP license, you may not use, copy or distribute this file. 
   VRHFIN =Cu: d10 p1                                                                               
   LEXCH  = PE                                                                                      
   EATOM  =  1390.9808 eV,  102.2342 Ry                                                             
                                                                                                    
   TITEL  = PAW_PBE Cu 22Jun2005                                                                    
   LULTRA =        F    use ultrasoft PP ?                                                          
   IUNSCR =        1    unscreen: 0-lin 1-nonlin 2-no                                               
   RPACOR =    2.000    partial core radius                                                         
   POMASS =   63.546; ZVAL   =   11.000    mass and valenz                                          
   RCORE  =    2.300    outmost cutoff radius                                                       
   RWIGS  =    2.200; RWIGS  =    1.164    wigner-seitz radius (au A)                               
   ENMAX  =  295.446; ENMIN  =  221.585 eV                                                          
   ICORE  =        3    local potential                                                             
   LCOR   =        T    correct aug charges                                                         
   LPAW   =        T    paw PP                                                                      
   EAUG   =  586.980                                                                                
   DEXC   =    0.000                                                                                
   RMAX   =    2.344    core radius for proj-oper                                                   
   RAUG   =    1.300    factor for augmentation sphere                                              
   RDEP   =    2.302    radius for radial grids                                                     
   RDEPT  =    1.771    core radius for aug-charge                                                  
                                                                                                    
   Atomic configuration                                                                             
    9 entries                                                                                       
     n  l   j            E        occ.                                                              
     1  0  0.50     -8850.2468   2.0000                                                             
     2  0  0.50     -1062.3498   2.0000                                                             
     2  1  1.50      -916.8226   6.0000                                                             
     3  0  0.50      -114.6929   2.0000                                                             
     3  1  1.50       -72.1325   6.0000                                                             
     3  2  2.50        -5.0394  10.0000                                                             
     4  0  0.50        -4.6097   1.0000                                                             
     4  1  0.50        -4.0817   0.0000                                                             
     4  3  2.50        -1.3606   0.0000                                                             
   Description                                                                                      
     l       E           TYP  RCUT    TYP  RCUT                                                     
     2     -5.0393973     23  2.200                                                                 
     2     10.8846608     23  2.200                                                                 
     0     -4.6097109     23  2.200                                                                 
     0      8.2520465     23  2.200                                                                 
     1     -2.7211652     23  2.200                                                                 
     1     21.7055443     23  2.200                                                                 
     3      2.7211652     23  2.300                                                                 
  local pseudopotential read in
  partial core-charges read in
  partial kinetic energy density read in
  atomic valenz-charges read in
  non local Contribution for L=           2  read in
    real space projection operators read in
  non local Contribution for L=           2  read in
    real space projection operators read in
  non local Contribution for L=           0  read in
    real space projection operators read in
  non local Contribution for L=           0  read in
    real space projection operators read in
  non local Contribution for L=           1  read in
    real space projection operators read in
  non local Contribution for L=           1  read in
    real space projection operators read in
    PAW grid and wavefunctions read in
 
   number of l-projection  operators is LMAX  =           6
   number of lm-projection operators is LMMAX =          18
 
  PAW_PBE Pd 04Jan2005                  :
 energy of atom  1       EATOM= -809.7530
 kinetic energy error for atom=    0.0520 (will be added to EATOM!!)
  PAW_PBE Ir 06Sep2000                  :
 energy of atom  2       EATOM= -560.1833
 kinetic energy error for atom=    0.0296 (will be added to EATOM!!)
  PAW_PBE Pt 04Feb2005                  :
 energy of atom  3       EATOM= -729.1176
 kinetic energy error for atom=    0.0500 (will be added to EATOM!!)
  PAW_PBE Cu 22Jun2005                  :
 energy of atom  4       EATOM=-1390.9808
 kinetic energy error for atom=    0.0665 (will be added to EATOM!!)
 
 
 POSCAR: Pd Ir Pt Cu
  positions in cartesian coordinates
  No initial velocities read in
 exchange correlation table for  LEXCH =        8
   RHO(1)=    0.500       N(1)  =     2000
   RHO(2)=  100.500       N(2)  =     4000
 


--------------------------------------------------------------------------------------------------------


 ion  position               nearest neighbor table
   1  0.000  0.000  0.000-   2 2.73   3 2.73   4 2.73   3 2.73   4 2.73   2 2.73   4 2.73   4 2.73
                             2 2.73   3 2.73   3 2.73   2 2.73
   2  0.500  0.500  0.000-   1 2.73   3 2.73   4 2.73   3 2.73   4 2.73   1 2.73   3 2.73   3 2.73
                             1 2.73   4 2.73   4 2.73   1 2.73
   3  0.500  0.000  0.500-   1 2.73   2 2.73   4 2.73   1 2.73   2 2.73   2 2.73   4 2.73   2 2.73
                             1 2.73   4 2.73   1 2.73   4 2.73
   4  0.000  0.500  0.500-   1 2.73   2 2.73   3 2.73   1 2.73   2 2.73   1 2.73   3 2.73   1 2.73
                             2 2.73   3 2.73   2 2.73   3 2.73
 
  LATTYP: Found a simple cubic cell.
 ALAT       =     3.8660000000
  
  Lattice vectors:
  
 A1 = (   3.8660000000,   0.0000000000,   0.0000000000)
 A2 = (   0.0000000000,   3.8660000000,   0.0000000000)
 A3 = (   0.0000000000,   0.0000000000,   3.8660000000)


Analysis of symmetry for initial positions (statically):
=====================================================================
 Subroutine PRICEL returns:
 Original cell was already a primitive cell.
 

 Routine SETGRP: Setting up the symmetry group for a 
 simple cubic supercell.


 Subroutine GETGRP returns: Found  8 space group operations
 (whereof  8 operations were pure point group operations)
 out of a pool of 48 trial point group operations.


The static configuration has the point symmetry D_2h.


Analysis of symmetry for dynamics (positions and initial velocities):
=====================================================================
 Subroutine PRICEL returns:
 Original cell was already a primitive cell.
 

 Routine SETGRP: Setting up the symmetry group for a 
 simple cubic supercell.


 Subroutine GETGRP returns: Found  8 space group operations
 (whereof  8 operations were pure point group operations)
 out of a pool of 48 trial point group operations.


The dynamic configuration has the point symmetry D_2h.


 Subroutine INISYM returns: Found  8 space group operations
 (whereof  8 operations are pure point group operations),
 and found     1 'primitive' translations


----------------------------------------------------------------------------------------

                                     Primitive cell                                     

  volume of cell :      57.7811

  direct lattice vectors                    reciprocal lattice vectors
     3.866000000  0.000000000  0.000000000     0.258665287  0.000000000  0.000000000
     0.000000000  3.866000000  0.000000000     0.000000000  0.258665287  0.000000000
     0.000000000  0.000000000  3.866000000     0.000000000  0.000000000  0.258665287

  length of vectors
     3.866000000  3.866000000  3.866000000     0.258665287  0.258665287  0.258665287

  position of ions in fractional coordinates (direct lattice)
     0.000000000  0.000000000  0.000000000
     0.500000000  0.500000000  0.000000000
     0.500000000  0.000000000  0.500000000
     0.000000000  0.500000000  0.500000000

  ion indices of the primitive-cell ions
   primitive index   ion index
                 1           1
                 2           2
                 3           3
                 4           4

----------------------------------------------------------------------------------------

 
 
 KPOINTS: KPOINTS created by Atomic Simulation Env

Automatic generation of k-mesh.
 Grid dimensions read from file:
 generate k-points for:    5    5    5

 Generating k-lattice:

  Cartesian coordinates                     Fractional coordinates (reciprocal lattice)
     0.051733057  0.000000000  0.000000000     0.200000000  0.000000000  0.000000000
     0.000000000  0.051733057  0.000000000     0.000000000  0.200000000  0.000000000
     0.000000000  0.000000000  0.051733057     0.000000000  0.000000000  0.200000000

  Length of vectors
     0.051733057  0.051733057  0.051733057

  Shift w.r.t. Gamma in fractional coordinates (k-lattice)
     0.000000000  0.000000000  0.000000000

 
 Subroutine IBZKPT returns following result:
 ===========================================
 
 Found     27 irreducible k-points:
 
 Following reciprocal coordinates:
            Coordinates               Weight
  0.000000  0.000000  0.000000      1.000000
  0.200000  0.000000  0.000000      2.000000
  0.000000  0.200000  0.000000      2.000000
  0.000000  0.000000  0.200000      2.000000
  0.400000  0.000000  0.000000      2.000000
  0.000000  0.400000  0.000000      2.000000
  0.000000  0.000000  0.400000      2.000000
  0.200000  0.200000  0.000000      4.000000
  0.000000  0.200000  0.200000      4.000000
  0.200000  0.000000  0.200000      4.000000
  0.400000  0.200000  0.000000      4.000000
  0.000000  0.400000  0.200000      4.000000
  0.200000  0.000000  0.400000      4.000000
 -0.200000  0.400000  0.000000      4.000000
 -0.400000  0.000000  0.200000      4.000000
  0.000000  0.200000  0.400000      4.000000
  0.400000  0.400000  0.000000      4.000000
  0.000000  0.400000  0.400000      4.000000
  0.400000  0.000000  0.400000      4.000000
  0.200000  0.200000  0.200000      8.000000
  0.400000  0.200000  0.200000      8.000000
  0.200000  0.400000  0.200000      8.000000
  0.200000  0.200000  0.400000      8.000000
  0.400000  0.400000  0.200000      8.000000
  0.200000  0.400000  0.400000      8.000000
  0.400000  0.200000  0.400000      8.000000
  0.400000  0.400000  0.400000      8.000000
 
 Following cartesian coordinates:
            Coordinates               Weight
  0.000000  0.000000  0.000000      1.000000
  0.051733  0.000000  0.000000      2.000000
  0.000000  0.051733  0.000000      2.000000
  0.000000  0.000000  0.051733      2.000000
  0.103466  0.000000  0.000000      2.000000
  0.000000  0.103466  0.000000      2.000000
  0.000000  0.000000  0.103466      2.000000
  0.051733  0.051733  0.000000      4.000000
  0.000000  0.051733  0.051733      4.000000
  0.051733  0.000000  0.051733      4.000000
  0.103466  0.051733  0.000000      4.000000
  0.000000  0.103466  0.051733      4.000000
  0.051733  0.000000  0.103466      4.000000
 -0.051733  0.103466  0.000000      4.000000
 -0.103466  0.000000  0.051733      4.000000
  0.000000  0.051733  0.103466      4.000000
  0.103466  0.103466  0.000000      4.000000
  0.000000  0.103466  0.103466      4.000000
  0.103466  0.000000  0.103466      4.000000
  0.051733  0.051733  0.051733      8.000000
  0.103466  0.051733  0.051733      8.000000
  0.051733  0.103466  0.051733      8.000000
  0.051733  0.051733  0.103466      8.000000
  0.103466  0.103466  0.051733      8.000000
  0.051733  0.103466  0.103466      8.000000
  0.103466  0.051733  0.103466      8.000000
  0.103466  0.103466  0.103466      8.000000
 


--------------------------------------------------------------------------------------------------------




 Dimension of arrays:
   k-points           NKPTS =     27   k-points in BZ     NKDIM =     27   number of bands    NBANDS=     30
   number of dos      NEDOS =    301   number of ions     NIONS =      4
   non local maximal  LDIM  =      6   non local SUM 2l+1 LMDIM =     18
   total plane-waves  NPLWV =   4096
   max r-space proj   IRMAX =      1   max aug-charges    IRDMAX=   5325
   dimension x,y,z NGX =    16 NGY =   16 NGZ =   16
   dimension x,y,z NGXF=    32 NGYF=   32 NGZF=   32
   support grid    NGXF=    32 NGYF=   32 NGZF=   32
   ions per type =               1   1   1   1
   NGX,Y,Z   is equivalent  to a cutoff of   6.88,  6.88,  6.88 a.u.
   NGXF,Y,Z  is equivalent  to a cutoff of  13.76, 13.76, 13.76 a.u.

 SYSTEM =  unknown system                          
 POSCAR =  Pd Ir Pt Cu                             

 Startparameter for this run:
   NWRITE =      2    write-flag & timer
   PREC   = normal    normal or accurate (medium, high low for compatibility)
   ISTART =      1    job   : 0-new  1-cont  2-samecut
   ICHARG =      1    charge: 1-file 2-atom 10-const
   ISPIN  =      1    spin polarized calculation?
   LNONCOLLINEAR =      F non collinear calculations
   LSORBIT =      F    spin-orbit coupling
   INIWAV =      1    electr: 0-lowe 1-rand  2-diag
   LASPH  =      F    aspherical Exc in radial PAW
   METAGGA=      F    non-selfconsistent MetaGGA calc.

 Electronic Relaxation 1
   ENCUT  =  280.0 eV  20.58 Ry    4.54 a.u.   5.27  5.27  5.27*2*pi/ulx,y,z
   ENINI  =  280.0     initial cutoff
   ENAUG  =  587.0 eV  augmentation charge cutoff
   NELM   =     60;   NELMIN=  2; NELMDL=  0     # of ELM steps 
   EDIFF  = 0.1E-05   stopping-criterion for ELM
   LREAL  =      F    real-space projection
   NLSPLINE    = F    spline interpolate recip. space projectors
   LCOMPAT=      F    compatible to vasp.4.4
   GGA_COMPAT  = T    GGA compatible to vasp.4.4-vasp.4.6
   LMAXPAW     = -100 max onsite density
   LMAXMIX     =    2 max onsite mixed and CHGCAR
   VOSKOWN=      0    Vosko Wilk Nusair interpolation
   ROPT   =    0.00000   0.00000   0.00000   0.00000
 Ionic relaxation
   EDIFFG = 0.1E-04   stopping-criterion for IOM
   NSW    =      0    number of steps for IOM
   NBLOCK =      1;   KBLOCK =      1    inner block; outer block 
   IBRION =     -1    ionic relax: 0-MD 1-quasi-New 2-CG
   NFREE  =      0    steps in history (QN), initial steepest desc. (CG)
   ISIF   =      2    stress and relaxation
   IWAVPR =      0    prediction:  0-non 1-charg 2-wave 3-comb
   ISYM   =      2    0-nonsym 1-usesym 2-fastsym
   LCORR  =      T    Harris-Foulkes like correction to forces

   POTIM  = 0.5000    time-step for ionic-motion
   TEIN   =    0.0    initial temperature
   TEBEG  =    0.0;   TEEND  =   0.0 temperature during run
   SMASS  =  -3.00    Nose mass-parameter (am)
   estimated Nose-frequenzy (Omega)   =  0.10E-29 period in steps = 0.13E+47 mass=  -0.342E-27a.u.
   SCALEE = 1.0000    scale energy and forces
   NPACO  =    256;   APACO  = 16.0  distance and # of slots for P.C.
   PSTRESS=    0.0 pullay stress

  Mass of Ions in am
   POMASS = 106.42192.22195.08 63.55
  Ionic Valenz
   ZVAL   =  10.00  9.00 10.00 11.00
  Atomic Wigner-Seitz radii
   RWIGS  =  -1.00 -1.00 -1.00 -1.00
  virtual crystal weights 
   VCA    =   1.00  1.00  1.00  1.00
   NELECT =      40.0000    total number of electrons
   NUPDOWN=      -1.0000    fix difference up-down

 DOS related values:
   EMIN   =  10.00;   EMAX   =-10.00  energy-range for DOS
   EFERMI =   0.00
   ISMEAR =     1;   SIGMA  =   0.20  broadening in eV -4-tet -1-fermi 0-gaus

 Electronic relaxation 2 (details)
   IALGO  =     38    algorithm
   LDIAG  =      T    sub-space diagonalisation (order eigenvalues)
   LSUBROT=      F    optimize rotation matrix (better conditioning)
   TURBO    =      0    0=normal 1=particle mesh
   IRESTART =      0    0=no restart 2=restart with 2 vectors
   NREBOOT  =      0    no. of reboots
   NMIN     =      0    reboot dimension
   EREF     =   0.00    reference energy to select bands
   IMIX   =      4    mixing-type and parameters
     AMIX     =   0.40;   BMIX     =  1.00
     AMIX_MAG =   1.60;   BMIX_MAG =  1.00
     AMIN     =   0.10
     WC   =   100.;   INIMIX=   1;  MIXPRE=   1;  MAXMIX= -45

 Intra band minimization:
   WEIMIN = 0.0000     energy-eigenvalue tresh-hold
   EBREAK =  0.83E-08  absolut break condition
   DEPER  =   0.30     relativ break condition  

   TIME   =   0.40     timestep for ELM

  volume/ion in A,a.u.               =      14.45        97.48
  Fermi-wavevector in a.u.,A,eV,Ry     =   1.448215  2.736729 28.535854  2.097326
  Thomas-Fermi vector in A             =   2.566081
 
 Write flags
   LWAVE        =      T    write WAVECAR
   LDOWNSAMPLE  =      F    k-point downsampling of WAVECAR
   LCHARG       =      T    write CHGCAR
   LVTOT        =      F    write LOCPOT, total local potential
   LVHAR        =      F    write LOCPOT, Hartree potential only
   LELF         =      F    write electronic localiz. function (ELF)
   LORBIT       =      0    0 simple, 1 ext, 2 COOP (PROOUT), +10 PAW based schemes


 Dipole corrections
   LMONO  =      F    monopole corrections only (constant potential shift)
   LDIPOL =      F    correct potential (dipole corrections)
   IDIPOL =      0    1-x, 2-y, 3-z, 4-all directions 
   EPSILON=  1.0000000 bulk dielectric constant

 Exchange correlation treatment:
   GGA     =    PE    GGA type
   LEXCH   =     8    internal setting for exchange type
   VOSKOWN=      0    Vosko Wilk Nusair interpolation
   LHFCALC =     F    Hartree Fock is set to
   LHFONE  =     F    Hartree Fock one center treatment
   AEXX    =    0.0000 exact exchange contribution

 Linear response parameters
   LEPSILON=     F    determine dielectric tensor
   LRPA    =     F    only Hartree local field effects (RPA)
   LNABLA  =     F    use nabla operator in PAW spheres
   LVEL    =     F    velocity operator in full k-point grid
   LINTERFAST=   F  fast interpolation
   KINTER  =     0    interpolate to denser k-point grid
   CSHIFT  =0.1000    complex shift for real part using Kramers Kronig
   OMEGAMAX=  -1.0    maximum frequency
   DEG_THRESHOLD= 0.2000000E-02 threshold for treating states as degnerate
   RTIME   =   -0.100 relaxation time in fs
  (WPLASMAI=    0.000 imaginary part of plasma frequency in eV, 0.658/RTIME)
   DFIELD  = 0.0000000 0.0000000 0.0000000 field for delta impulse in time
 
 Orbital magnetization related:
   ORBITALMAG=     F  switch on orbital magnetization
   LCHIMAG   =     F  perturbation theory with respect to B field
   DQ        =  0.001000  dq finite difference perturbation B field
   LLRAUG    =     F  two centre corrections for induced B field



--------------------------------------------------------------------------------------------------------


 Static calculation
 charge density and potential will be updated during run
 non-spin polarized calculation
 Variant of blocked Davidson
 Davidson routine will perform the subspace rotation
 perform sub-space diagonalisation
    after iterative eigenvector-optimisation
 modified Broyden-mixing scheme, WC =      100.0
 initial mixing is a Kerker type mixing with AMIX =  0.4000 and BMIX =      1.0000
 Hartree-type preconditioning will be used
 using additional bands           10
 reciprocal scheme for non local part
 use partial core corrections
 calculate Harris-corrections to forces 
   (improved forces if not selfconsistent)
 use gradient corrections 
 use of overlap-Matrix (Vanderbilt PP)
 Methfessel and Paxton  Order N= 1 SIGMA  =   0.20


--------------------------------------------------------------------------------------------------------


  energy-cutoff  :      280.00
  volume of cell :       57.78
      direct lattice vectors                 reciprocal lattice vectors
     3.866000000  0.000000000  0.000000000     0.258665287  0.000000000  0.000000000
     0.000000000  3.866000000  0.000000000     0.000000000  0.258665287  0.000000000
     0.000000000  0.000000000  3.866000000     0.000000000  0.000000000  0.258665287

  length of vectors
     3.866000000  3.866000000  3.866000000     0.258665287  0.258665287  0.258665287


 
 old parameters found on file WAVECAR:
  energy-cutoff  :      280.00
  volume of cell :       57.78
      direct lattice vectors                 reciprocal lattice vectors
     3.866000000  0.000000000  0.000000000     0.258665287  0.000000000  0.000000000
     0.000000000  3.866000000  0.000000000     0.000000000  0.258665287  0.000000000
     0.000000000  0.000000000  3.866000000     0.000000000  0.000000000  0.258665287

  length of vectors

 
 k-points in units of 2pi/SCALE and weight: KPOINTS created by Atomic Simulation Env
   0.00000000  0.00000000  0.00000000       0.008
   0.05173306  0.00000000  0.00000000       0.016
   0.00000000  0.05173306  0.00000000       0.016
   0.00000000  0.00000000  0.05173306       0.016
   0.10346611  0.00000000  0.00000000       0.016
   0.00000000  0.10346611  0.00000000       0.016
   0.00000000  0.00000000  0.10346611       0.016
   0.05173306  0.05173306  0.00000000       0.032
   0.00000000  0.05173306  0.05173306       0.032
   0.05173306  0.00000000  0.05173306       0.032
   0.10346611  0.05173306  0.00000000       0.032
   0.00000000  0.10346611  0.05173306       0.032
   0.05173306  0.00000000  0.10346611       0.032
  -0.05173306  0.10346611  0.00000000       0.032
  -0.10346611  0.00000000  0.05173306       0.032
   0.00000000  0.05173306  0.10346611       0.032
   0.10346611  0.10346611  0.00000000       0.032
   0.00000000  0.10346611  0.10346611       0.032
   0.10346611  0.00000000  0.10346611       0.032
   0.05173306  0.05173306  0.05173306       0.064
   0.10346611  0.05173306  0.05173306       0.064
   0.05173306  0.10346611  0.05173306       0.064
   0.05173306  0.05173306  0.10346611       0.064
   0.10346611  0.10346611  0.05173306       0.064
   0.05173306  0.10346611  0.10346611       0.064
   0.10346611  0.05173306  0.10346611       0.064
   0.10346611  0.10346611  0.10346611       0.064
 
 k-points in reciprocal lattice and weights: KPOINTS created by Atomic Simulation Env
   0.00000000  0.00000000  0.00000000       0.008
   0.20000000  0.00000000  0.00000000       0.016
   0.00000000  0.20000000  0.00000000       0.016
   0.00000000  0.00000000  0.20000000       0.016
   0.40000000  0.00000000  0.00000000       0.016
   0.00000000  0.40000000  0.00000000       0.016
   0.00000000  0.00000000  0.40000000       0.016
   0.20000000  0.20000000  0.00000000       0.032
   0.00000000  0.20000000  0.20000000       0.032
   0.20000000  0.00000000  0.20000000       0.032
   0.40000000  0.20000000  0.00000000       0.032
   0.00000000  0.40000000  0.20000000       0.032
   0.20000000  0.00000000  0.40000000       0.032
  -0.20000000  0.40000000  0.00000000       0.032
  -0.40000000  0.00000000  0.20000000       0.032
   0.00000000  0.20000000  0.40000000       0.032
   0.40000000  0.40000000  0.00000000       0.032
   0.00000000  0.40000000  0.40000000       0.032
   0.40000000  0.00000000  0.40000000       0.032
   0.20000000  0.20000000  0.20000000       0.064
   0.40000000  0.20000000  0.20000000       0.064
   0.20000000  0.40000000  0.20000000       0.064
   0.20000000  0.20000000  0.40000000       0.064
   0.40000000  0.40000000  0.20000000       0.064
   0.20000000  0.40000000  0.40000000       0.064
   0.40000000  0.20000000  0.40000000       0.064
   0.40000000  0.40000000  0.40000000       0.064
 
 position of ions in fractional coordinates (direct lattice) 
   0.00000000  0.00000000  0.00000000
   0.50000000  0.50000000  0.00000000
   0.50000000  0.00000000  0.50000000
   0.00000000  0.50000000  0.50000000
 
 position of ions in cartesian coordinates  (Angst):
   0.00000000  0.00000000  0.00000000
   1.93300000  1.93300000  0.00000000
   1.93300000  0.00000000  1.93300000
   0.00000000  1.93300000  1.93300000
 


--------------------------------------------------------------------------------------------------------


 k-point   1 :   0.0000 0.0000 0.0000  plane waves:     619
 k-point   2 :   0.2000 0.0000 0.0000  plane waves:     619
 k-point   3 :   0.0000 0.2000 0.0000  plane waves:     619
 k-point   4 :   0.0000 0.0000 0.2000  plane waves:     619
 k-point   5 :   0.4000 0.0000 0.0000  plane waves:     618
 k-point   6 :   0.0000 0.4000 0.0000  plane waves:     618
 k-point   7 :   0.0000 0.0000 0.4000  plane waves:     618
 k-point   8 :   0.2000 0.2000 0.0000  plane waves:     617
 k-point   9 :   0.0000 0.2000 0.2000  plane waves:     617
 k-point  10 :   0.2000 0.0000 0.2000  plane waves:     617
 k-point  11 :   0.4000 0.2000 0.0000  plane waves:     613
 k-point  12 :   0.0000 0.4000 0.2000  plane waves:     613
 k-point  13 :   0.2000 0.0000 0.4000  plane waves:     613
 k-point  14 :  -0.2000 0.4000 0.0000  plane waves:     613
 k-point  15 :  -0.4000 0.0000 0.2000  plane waves:     613
 k-point  16 :   0.0000 0.2000 0.4000  plane waves:     613
 k-point  17 :   0.4000 0.4000 0.0000  plane waves:     614
 k-point  18 :   0.0000 0.4000 0.4000  plane waves:     614
 k-point  19 :   0.4000 0.0000 0.4000  plane waves:     614
 k-point  20 :   0.2000 0.2000 0.2000  plane waves:     609
 k-point  21 :   0.4000 0.2000 0.2000  plane waves:     609
 k-point  22 :   0.2000 0.4000 0.2000  plane waves:     609
 k-point  23 :   0.2000 0.2000 0.4000  plane waves:     609
 k-point  24 :   0.4000 0.4000 0.2000  plane waves:     619
 k-point  25 :   0.2000 0.4000 0.4000  plane waves:     619
 k-point  26 :   0.4000 0.2000 0.4000  plane waves:     619
 k-point  27 :   0.4000 0.4000 0.4000  plane waves:     618

 maximum number of plane-waves:       619
 maximum index in each direction: 
   IXMAX=    5   IYMAX=    5   IZMAX=    5
   IXMIN=   -5   IYMIN=   -5   IZMIN=   -5


 total amount of memory used by VASP MPI-rank0    51324. kBytes
=======================================================================

   base      :      30000. kBytes
   nonl-proj :       9666. kBytes
   grid      :       2641. kBytes
   one-center:         62. kBytes
   wavefun   :       8955. kBytes
 
     INWAV:  cpu time    0.0114: real time    0.0114
 Broyden mixing: mesh for mixing (old mesh)
   NGX = 11   NGY = 11   NGZ = 11
  (NGX  = 32   NGY  = 32   NGZ  = 32)
  gives a total of   1331 points

 initial charge density was supplied:
 number of electron      39.9999671 magnetization 
 keeping initial charge density in first step


--------------------------------------------------------------------------------------------------------


 Maximum index for augmentation-charges         4945 (set IRDMAX)


--------------------------------------------------------------------------------------------------------


 First call to EWALD:  gamma=   0.458
 Maximum number of real-space cells 3x 3x 3
 Maximum number of reciprocal cells 3x 3x 3

    FEWALD:  cpu time    0.0009: real time    0.0009


--------------------------------------- Iteration      1(   1)  ---------------------------------------


    POTLOK:  cpu time    0.0085: real time    0.0085
    SETDIJ:  cpu time    0.0043: real time    0.0043
     EDDAV:  cpu time    0.4348: real time    0.4529
       DOS:  cpu time    0.0029: real time    0.0029
    CHARGE:  cpu time    0.0231: real time    0.0231
    MIXING:  cpu time    0.0003: real time    0.0003
    --------------------------------------------
      LOOP:  cpu time    0.4739: real time    0.4920

 eigenvalue-minimisations  :  2206
 total energy-change (2. order) :-0.2352278E+02  (-0.5822450E-03)
 number of electron      39.9999670 magnetization 
 augmentation part       16.9270406 magnetization 

 Broyden mixing:
  rms(total) = 0.13001E-01    rms(broyden)= 0.12889E-01
  rms(prec ) = 0.24536E-01
  weight for this iteration     100.00

 Free energy of the ion-electron system (eV)
  ---------------------------------------------------
  alpha Z        PSCENC =       244.65455147
  Ewald energy   TEWEN  =     -3423.86860972
  -Hartree energ DENC   =      -596.16361466
  -exchange      EXHF   =         0.00000000
  -V(xc)+E(xc)   XCENC  =         1.67062053
  PAW double counting   =      3928.48151164    -3914.16682184
  entropy T*S    EENTRO =        -0.00586135
  eigenvalues    EBANDS =       246.03885279
  atomic energy  EATOM  =      3489.83659439
  Solvation  Ediel_sol  =         0.00000000
  ---------------------------------------------------
  free energy    TOTEN  =       -23.52277676 eV

  energy without entropy =      -23.51691541  energy(sigma->0) =      -23.52082297


--------------------------------------------------------------------------------------------------------




--------------------------------------- Iteration      1(   2)  ---------------------------------------


    POTLOK:  cpu time    0.0081: real time    0.0081
    SETDIJ:  cpu time    0.0041: real time    0.0041
     EDDAV:  cpu time    0.3839: real time    0.3839
       DOS:  cpu time    0.0029: real time    0.0029
    CHARGE:  cpu time    0.0224: real time    0.0224
    MIXING:  cpu time    0.0003: real time    0.0003
    --------------------------------------------
      LOOP:  cpu time    0.4217: real time    0.4217

 eigenvalue-minimisations  :  2184
 total energy-change (2. order) : 0.2647427E-01  (-0.9242437E-03)
 number of electron      39.9999672 magnetization 
 augmentation part       16.9211667 magnetization 

 Broyden mixing:
  rms(total) = 0.22481E-01    rms(broyden)= 0.22413E-01
  rms(prec ) = 0.57959E-01
  weight for this iteration     100.00

 eigenvalues of (default mixing * dielectric matrix)
  average eigenvalue GAMMA=   0.3517
  0.3517

 Free energy of the ion-electron system (eV)
  ---------------------------------------------------
  alpha Z        PSCENC =       244.65455147
  Ewald energy   TEWEN  =     -3423.86860972
  -Hartree energ DENC   =      -596.25820254
  -exchange      EXHF   =         0.00000000
  -V(xc)+E(xc)   XCENC  =         1.67699982
  PAW double counting   =      3928.81411804    -3914.58806075
  entropy T*S    EENTRO =        -0.00685236
  eigenvalues    EBANDS =       246.24315916
  atomic energy  EATOM  =      3489.83659439
  Solvation  Ediel_sol  =         0.00000000
  ---------------------------------------------------
  free energy    TOTEN  =       -23.49630249 eV

  energy without entropy =      -23.48945013  energy(sigma->0) =      -23.49401837


--------------------------------------------------------------------------------------------------------




--------------------------------------- Iteration      1(   3)  ---------------------------------------


    POTLOK:  cpu time    0.0078: real time    0.0078
    SETDIJ:  cpu time    0.0040: real time    0.0040
     EDDAV:  cpu time    0.4018: real time    0.4019
       DOS:  cpu time    0.0030: real time    0.0030
    CHARGE:  cpu time    0.0228: real time    0.0228
    MIXING:  cpu time    0.0003: real time    0.0003
    --------------------------------------------
      LOOP:  cpu time    0.4398: real time    0.4398

 eigenvalue-minimisations  :  2276
 total energy-change (2. order) : 0.6719649E-03  (-0.1339272E-03)
 number of electron      39.9999671 magnetization 
 augmentation part       16.9271267 magnetization 

 Broyden mixing:
  rms(total) = 0.49048E-02    rms(broyden)= 0.48777E-02
  rms(prec ) = 0.10188E-01
  weight for this iteration     100.00

 eigenvalues of (default mixing * dielectric matrix)
  average eigenvalue GAMMA=   0.4520
  0.5610  0.3430

 Free energy of the ion-electron system (eV)
  ---------------------------------------------------
  alpha Z        PSCENC =       244.65455147
  Ewald energy   TEWEN  =     -3423.86860972
  -Hartree energ DENC   =      -596.14928735
  -exchange      EXHF   =         0.00000000
  -V(xc)+E(xc)   XCENC  =         1.67117521
  PAW double counting   =      3928.73470218    -3914.44655682
  entropy T*S    EENTRO =        -0.00634902
  eigenvalues    EBANDS =       246.07814913
  atomic energy  EATOM  =      3489.83659439
  Solvation  Ediel_sol  =         0.00000000
  ---------------------------------------------------
  free energy    TOTEN  =       -23.49563052 eV

  energy without entropy =      -23.48928150  energy(sigma->0) =      -23.49351418


--------------------------------------------------------------------------------------------------------




--------------------------------------- Iteration      1(   4)  ---------------------------------------


    POTLOK:  cpu time    0.0079: real time    0.0079
    SETDIJ:  cpu time    0.0041: real time    0.0041
     EDDAV:  cpu time    0.4226: real time    0.4227
       DOS:  cpu time    0.0030: real time    0.0030
    CHARGE:  cpu time    0.0230: real time    0.0230
    MIXING:  cpu time    0.0003: real time    0.0003
    --------------------------------------------
      LOOP:  cpu time    0.4609: real time    0.4609

 eigenvalue-minimisations  :  2448
 total energy-change (2. order) : 0.5375916E-05  (-0.8957001E-05)
 number of electron      39.9999671 magnetization 
 augmentation part       16.9256719 magnetization 

 Broyden mixing:
  rms(total) = 0.41712E-02    rms(broyden)= 0.41708E-02
  rms(prec ) = 0.87008E-02
  weight for this iteration     100.00

 eigenvalues of (default mixing * dielectric matrix)
  average eigenvalue GAMMA=   0.4327
  0.5117  0.5117  0.2745

 Free energy of the ion-electron system (eV)
  ---------------------------------------------------
  alpha Z        PSCENC =       244.65455147
  Ewald energy   TEWEN  =     -3423.86860972
  -Hartree energ DENC   =      -596.19005329
  -exchange      EXHF   =         0.00000000
  -V(xc)+E(xc)   XCENC  =         1.67266435
  PAW double counting   =      3928.71904863    -3914.44105457
  entropy T*S    EENTRO =        -0.00647894
  eigenvalues    EBANDS =       246.12771254
  atomic energy  EATOM  =      3489.83659439
  Solvation  Ediel_sol  =         0.00000000
  ---------------------------------------------------
  free energy    TOTEN  =       -23.49562515 eV

  energy without entropy =      -23.48914620  energy(sigma->0) =      -23.49346550


--------------------------------------------------------------------------------------------------------




--------------------------------------- Iteration      1(   5)  ---------------------------------------


    POTLOK:  cpu time    0.0079: real time    0.0080
    SETDIJ:  cpu time    0.0040: real time    0.0040
     EDDAV:  cpu time    0.3902: real time    0.3902
       DOS:  cpu time    0.0030: real time    0.0030
    CHARGE:  cpu time    0.0225: real time    0.0225
    MIXING:  cpu time    0.0003: real time    0.0003
    --------------------------------------------
      LOOP:  cpu time    0.4280: real time    0.4280

 eigenvalue-minimisations  :  2218
 total energy-change (2. order) : 0.6560170E-05  (-0.1365741E-05)
 number of electron      39.9999671 magnetization 
 augmentation part       16.9263855 magnetization 

 Broyden mixing:
  rms(total) = 0.30340E-02    rms(broyden)= 0.30336E-02
  rms(prec ) = 0.57482E-02
  weight for this iteration     100.00

 eigenvalues of (default mixing * dielectric matrix)
  average eigenvalue GAMMA=   0.5409
  0.7602  0.7602  0.3216  0.3216

 Free energy of the ion-electron system (eV)
  ---------------------------------------------------
  alpha Z        PSCENC =       244.65455147
  Ewald energy   TEWEN  =     -3423.86860972
  -Hartree energ DENC   =      -596.16995189
  -exchange      EXHF   =         0.00000000
  -V(xc)+E(xc)   XCENC  =         1.67169764
  PAW double counting   =      3928.68064790    -3914.39561784
  entropy T*S    EENTRO =        -0.00641341
  eigenvalues    EBANDS =       246.10148288
  atomic energy  EATOM  =      3489.83659439
  Solvation  Ediel_sol  =         0.00000000
  ---------------------------------------------------
  free energy    TOTEN  =       -23.49561859 eV

  energy without entropy =      -23.48920518  energy(sigma->0) =      -23.49348078


--------------------------------------------------------------------------------------------------------




--------------------------------------- Iteration      1(   6)  ---------------------------------------


    POTLOK:  cpu time    0.0078: real time    0.0078
    SETDIJ:  cpu time    0.0040: real time    0.0040
     EDDAV:  cpu time    0.2312: real time    0.2312
       DOS:  cpu time    0.0030: real time    0.0030
    CHARGE:  cpu time    0.0235: real time    0.0235
    MIXING:  cpu time    0.0004: real time    0.0004
    --------------------------------------------
      LOOP:  cpu time    0.2700: real time    0.2700

 eigenvalue-minimisations  :  1042
 total energy-change (2. order) : 0.1091607E-05  (-0.1047402E-06)
 number of electron      39.9999671 magnetization 
 augmentation part       16.9265002 magnetization 

 Broyden mixing:
  rms(total) = 0.23444E-02    rms(broyden)= 0.23443E-02
  rms(prec ) = 0.44759E-02
  weight for this iteration     100.00

 eigenvalues of (default mixing * dielectric matrix)
  average eigenvalue GAMMA=   0.6303
  0.9834  0.9834  0.4464  0.4464  0.2918

 Free energy of the ion-electron system (eV)
  ---------------------------------------------------
  alpha Z        PSCENC =       244.65455147
  Ewald energy   TEWEN  =     -3423.86860972
  -Hartree energ DENC   =      -596.16845322
  -exchange      EXHF   =         0.00000000
  -V(xc)+E(xc)   XCENC  =         1.67146183
  PAW double counting   =      3928.63302094    -3914.34665679
  entropy T*S    EENTRO =        -0.00641302
  eigenvalues    EBANDS =       246.09888664
  atomic energy  EATOM  =      3489.83659439
  Solvation  Ediel_sol  =         0.00000000
  ---------------------------------------------------
  free energy    TOTEN  =       -23.49561750 eV

  energy without entropy =      -23.48920447  energy(sigma->0) =      -23.49347982


--------------------------------------------------------------------------------------------------------




--------------------------------------- Iteration      1(   7)  ---------------------------------------


    POTLOK:  cpu time    0.0080: real time    0.0080
    SETDIJ:  cpu time    0.0042: real time    0.0042
     EDDAV:  cpu time    0.2185: real time    0.2185
       DOS:  cpu time    0.0029: real time    0.0029
    --------------------------------------------
      LOOP:  cpu time    0.2338: real time    0.2338

 eigenvalue-minimisations  :   954
 total energy-change (2. order) : 0.5470265E-06  (-0.6210596E-07)
 number of electron      39.9999671 magnetization 
 augmentation part       16.9265002 magnetization 

 Free energy of the ion-electron system (eV)
  ---------------------------------------------------
  alpha Z        PSCENC =       244.65455147
  Ewald energy   TEWEN  =     -3423.86860972
  -Hartree energ DENC   =      -596.16851542
  -exchange      EXHF   =         0.00000000
  -V(xc)+E(xc)   XCENC  =         1.67133822
  PAW double counting   =      3928.60099226    -3914.31402964
  entropy T*S    EENTRO =        -0.00641067
  eigenvalues    EBANDS =       246.09847219
  atomic energy  EATOM  =      3489.83659439
  Solvation  Ediel_sol  =         0.00000000
  ---------------------------------------------------
  free energy    TOTEN  =       -23.49561695 eV

  energy without entropy =      -23.48920627  energy(sigma->0) =      -23.49348006


--------------------------------------------------------------------------------------------------------




 average (electrostatic) potential at core
  the test charge radii are     1.1199  1.2793  1.2059  0.9430
  (the norm of the test charge is              1.0000)
       1 -71.7132       2 -48.8022       3 -64.8467       4 -61.7002
 
 
 
 E-fermi :   9.2239     XC(G=0): -13.1673     alpha+bet :-15.1862

 Fermi energy:         9.2238912928

 k-point     1 :       0.0000    0.0000    0.0000
  band No.  band energies     occupation 
      1       0.0956      2.00000
      2       2.5879      2.00000
      3       3.5342      2.00000
      4       3.5532      2.00000
      5       3.6322      2.00000
      6       3.7227      2.00000
      7       3.7247      2.00000
      8       6.2042      2.00000
      9       6.2087      2.00000
     10       6.3417      2.00000
     11       7.4511      2.00000
     12       7.5818      2.00000
     13       8.2385      2.00000
     14       8.3932      2.00000
     15       8.5559      2.00002
     16       9.2522      0.76284
     17       9.4091     -0.03130
     18       9.5056     -0.06291
     19       9.7833     -0.00056
     20      10.2543     -0.00000
     21      10.8282     -0.00000
     22      11.3807     -0.00000
     23      11.3882     -0.00000
     24      11.4013     -0.00000
     25      17.8972      0.00000
     26      18.1371      0.00000
     27      19.7562      0.00000
     28      20.2791      0.00000
     29      20.4241      0.00000
     30      20.6620      0.00000

 k-point     2 :       0.2000    0.0000    0.0000
  band No.  band energies     occupation 
      1       0.5632      2.00000
      2       2.8902      2.00000
      3       3.6995      2.00000
      4       3.7127      2.00000
      5       3.9102      2.00000
      6       3.9925      2.00000
      7       4.0575      2.00000
      8       5.9828      2.00000
      9       6.3525      2.00000
     10       6.5067      2.00000
     11       7.3598      2.00000
     12       7.5027      2.00000
     13       7.6851      2.00000
     14       7.8665      2.00000
     15       8.0115      2.00000
     16       8.2290      2.00000
     17       9.0238      2.05034
     18       9.1135      1.79460
     19       9.2527      0.75889
     20       9.4746     -0.07067
     21       9.7211     -0.00246
     22      10.8266     -0.00000
     23      13.1751     -0.00000
     24      13.1812     -0.00000
     25      17.9018      0.00000
     26      18.0105      0.00000
     27      20.3749      0.00000
     28      20.4170      0.00000
     29      20.5768      0.00000
     30      20.9795      0.00000

 k-point     3 :       0.0000    0.2000    0.0000
  band No.  band energies     occupation 
      1       0.6139      2.00000
      2       2.9092      2.00000
      3       3.6599      2.00000
      4       3.7874      2.00000
      5       3.8532      2.00000
      6       3.9906      2.00000
      7       4.0799      2.00000
      8       6.1410      2.00000
      9       6.3817      2.00000
     10       6.3835      2.00000
     11       7.2925      2.00000
     12       7.6189      2.00000
     13       7.6304      2.00000
     14       7.7741      2.00000
     15       8.2855      2.00000
     16       8.7573      2.00473
     17       9.0304      2.04282
     18       9.2148      1.07689
     19       9.2337      0.91707
     20       9.3063      0.36418
     21       9.4879     -0.06846
     22       9.7025     -0.00368
     23      13.2847     -0.00000
     24      13.4006     -0.00000
     25      17.4200      0.00000
     26      18.6721      0.00000
     27      20.3106      0.00000
     28      20.3721      0.00000
     29      20.5717      0.00000
     30      21.2829      0.00000

 k-point     4 :       0.0000    0.0000    0.2000
  band No.  band energies     occupation 
      1       0.6155      2.00000
      2       2.9213      2.00000
      3       3.8132      2.00000
      4       3.8615      2.00000
      5       3.8949      2.00000
      6       3.9073      2.00000
      7       3.9172      2.00000
      8       5.9619      2.00000
      9       6.3534      2.00000
     10       6.5075      2.00000
     11       7.2995      2.00000
     12       7.5872      2.00000
     13       7.5958      2.00000
     14       7.9481      2.00000
     15       8.0939      2.00000
     16       8.5358      2.00001
     17       8.8578      2.02659
     18       9.1409      1.63996
     19       9.1756      1.39559
     20       9.3123      0.32680
     21       9.7349     -0.00180
     22      10.2400     -0.00000
     23      13.2569     -0.00000
     24      13.3666     -0.00000
     25      17.1058      0.00000
     26      18.8803      0.00000
     27      20.4023      0.00000
     28      20.4253      0.00000
     29      20.6904      0.00000
     30      21.2044      0.00000

 k-point     5 :       0.4000    0.0000    0.0000
  band No.  band energies     occupation 
      1       1.6776      2.00000
      2       3.4993      2.00000
      3       3.7996      2.00000
      4       4.0643      2.00000
      5       4.7138      2.00000
      6       4.7525      2.00000
      7       4.8450      2.00000
      8       5.5208      2.00000
      9       6.0451      2.00000
     10       6.1451      2.00000
     11       6.8578      2.00000
     12       6.9332      2.00000
     13       6.9701      2.00000
     14       7.1596      2.00000
     15       7.3426      2.00000
     16       7.5909      2.00000
     17       8.2143      2.00000
     18       8.2188      2.00000
     19       8.2514      2.00000
     20       8.5588      2.00003
     21       9.3523      0.12387
     22      10.8244     -0.00000
     23      15.7269      0.00000
     24      15.8024      0.00000
     25      17.0516      0.00000
     26      18.0289      0.00000
     27      18.5961      0.00000
     28      18.7185      0.00000
     29      19.1521      0.00000
     30      21.8106      0.00000

 k-point     6 :       0.0000    0.4000    0.0000
  band No.  band energies     occupation 
      1       1.9877      2.00000
      2       3.2958      2.00000
      3       3.7840      2.00000
      4       4.1185      2.00000
      5       4.6508      2.00000
      6       4.7000      2.00000
      7       4.9656      2.00000
      8       5.7275      2.00000
      9       6.3442      2.00000
     10       6.3686      2.00000
     11       6.8173      2.00000
     12       6.9042      2.00000
     13       6.9228      2.00000
     14       7.0912      2.00000
     15       7.5681      2.00000
     16       7.8856      2.00000
     17       7.8947      2.00000
     18       8.0949      2.00000
     19       8.1984      2.00000
     20       8.4603      2.00000
     21       9.1522      1.56534
     22       9.4707     -0.07089
     23      15.9081      0.00000
     24      15.9587      0.00000
     25      16.6798      0.00000
     26      18.4645      0.00000
     27      18.4949      0.00000
     28      18.6186      0.00000
     29      20.4763      0.00000
     30      20.7242      0.00000

 k-point     7 :       0.0000    0.0000    0.4000
  band No.  band energies     occupation 
      1       2.0024      2.00000
      2       3.2943      2.00000
      3       3.9932      2.00000
      4       4.3558      2.00000
      5       4.6415      2.00000
      6       4.7382      2.00000
      7       4.7511      2.00000
      8       5.4112      2.00000
      9       6.0373      2.00000
     10       6.1535      2.00000
     11       6.8258      2.00000
     12       6.9809      2.00000
     13       6.9870      2.00000
     14       7.1209      2.00000
     15       7.3929      2.00000
     16       7.7215      2.00000
     17       8.0272      2.00000
     18       8.0572      2.00000
     19       8.4336      2.00000
     20       8.5062      2.00000
     21       8.9458      2.06423
     22      10.2196     -0.00000
     23      15.8841      0.00000
     24      16.0156      0.00000
     25      16.2374      0.00000
     26      18.4369      0.00000
     27      18.7118      0.00000
     28      18.9845      0.00000
     29      20.0703      0.00000
     30      21.0816      0.00000

 k-point     8 :       0.2000    0.2000    0.0000
  band No.  band energies     occupation 
      1       1.0593      2.00000
      2       3.1989      2.00000
      3       3.9313      2.00000
      4       3.9402      2.00000
      5       4.1115      2.00000
      6       4.1157      2.00000
      7       4.3949      2.00000
      8       5.9242      2.00000
      9       6.4047      2.00000
     10       6.5374      2.00000
     11       7.0605      2.00000
     12       7.2567      2.00000
     13       7.2864      2.00000
     14       7.3528      2.00000
     15       7.8107      2.00000
     16       7.9982      2.00000
     17       8.3651      2.00000
     18       8.9264      2.05640
     19       8.9830      2.07079
     20       9.0698      1.96424
     21       9.7425     -0.00151
     22      10.8995     -0.00000
     23      11.8863     -0.00000
     24      14.5492     -0.00000
     25      16.9522      0.00000
     26      19.0142      0.00000
     27      20.0328      0.00000
     28      20.4101      0.00000
     29      21.0326      0.00000
     30      21.6693      0.00000

 k-point     9 :       0.0000    0.2000    0.2000
  band No.  band energies     occupation 
      1       1.0849      2.00000
      2       3.2341      2.00000
      3       3.9170      2.00000
      4       3.9854      2.00000
      5       4.0470      2.00000
      6       4.2286      2.00000
      7       4.3400      2.00000
      8       5.9048      2.00000
      9       6.4076      2.00000
     10       6.5392      2.00000
     11       7.0825      2.00000
     12       7.2389      2.00000
     13       7.3011      2.00000
     14       7.3286      2.00000
     15       7.7745      2.00000
     16       8.1073      2.00000
     17       8.4618      2.00000
     18       8.7281      2.00254
     19       8.9373      2.06100
     20       8.9411      2.06249
     21       9.5714     -0.03387
     22      10.9311     -0.00000
     23      12.2500     -0.00000
     24      14.4537     -0.00000
     25      16.8126      0.00000
     26      19.0624      0.00000
     27      19.5156      0.00000
     28      20.9402      0.00000
     29      21.1907      0.00000
     30      21.8818      0.00000

 k-point    10 :       0.2000    0.0000    0.2000
  band No.  band energies     occupation 
      1       1.0592      2.00000
      2       3.2142      2.00000
      3       3.9423      2.00000
      4       3.9588      2.00000
      5       4.0718      2.00000
      6       4.2301      2.00000
      7       4.3304      2.00000
      8       5.7872      2.00000
      9       6.4648      2.00000
     10       6.5674      2.00000
     11       7.0318      2.00000
     12       7.2429      2.00000
     13       7.2450      2.00000
     14       7.3097      2.00000
     15       7.8063      2.00000
     16       7.8563      2.00000
     17       8.2387      2.00000
     18       9.0148      2.05843
     19       9.0765      1.94411
     20       9.2734      0.59473
     21       9.8616     -0.00006
     22      11.1518     -0.00000
     23      11.5471     -0.00000
     24      14.5420     -0.00000
     25      16.9197      0.00000
     26      18.9435      0.00000
     27      19.9763      0.00000
     28      20.5327      0.00000
     29      21.1052      0.00000
     30      21.8050      0.00000

 k-point    11 :       0.4000    0.2000    0.0000
  band No.  band energies     occupation 
      1       2.1418      2.00000
      2       3.7743      2.00000
      3       4.1255      2.00000
      4       4.3047      2.00000
      5       4.6798      2.00000
      6       4.8426      2.00000
      7       5.0331      2.00000
      8       5.4773      2.00000
      9       5.6855      2.00000
     10       6.0983      2.00000
     11       6.3682      2.00000
     12       6.4871      2.00000
     13       6.9438      2.00000
     14       7.1973      2.00000
     15       7.3408      2.00000
     16       7.6839      2.00000
     17       7.8590      2.00000
     18       8.4214      2.00000
     19       8.4606      2.00000
     20       8.9551      2.06722
     21       9.5692     -0.03483
     22       9.8294     -0.00016
     23      13.1369     -0.00000
     24      15.1872      0.00000
     25      16.9196      0.00000
     26      18.0829      0.00000
     27      19.5516      0.00000
     28      19.8186      0.00000
     29      21.8188      0.00000
     30      23.0750      0.00000

 k-point    12 :       0.0000    0.4000    0.2000
  band No.  band energies     occupation 
      1       2.3413      2.00000
      2       3.6377      2.00000
      3       4.0344      2.00000
      4       4.3123      2.00000
      5       4.6037      2.00000
      6       4.8206      2.00000
      7       5.1596      2.00000
      8       5.6335      2.00000
      9       5.7960      2.00000
     10       6.2757      2.00000
     11       6.3503      2.00000
     12       6.5019      2.00000
     13       6.9330      2.00000
     14       7.1599      2.00000
     15       7.6305      2.00000
     16       7.7094      2.00000
     17       7.7837      2.00000
     18       8.2015      2.00000
     19       8.4018      2.00000
     20       8.9709      2.07044
     21       9.0851      1.91555
     22       9.3923     -0.00011
     23      13.5985     -0.00000
     24      15.1483      0.00000
     25      16.7870      0.00000
     26      18.3620      0.00000
     27      19.3806      0.00000
     28      19.5652      0.00000
     29      21.6703      0.00000
     30      23.3014      0.00000

 k-point    13 :       0.2000    0.0000    0.4000
  band No.  band energies     occupation 
      1       2.3775      2.00000
      2       3.6474      2.00000
      3       4.2524      2.00000
      4       4.4501      2.00000
      5       4.6372      2.00000
      6       4.9622      2.00000
      7       4.9640      2.00000
      8       5.2925      2.00000
      9       5.5777      2.00000
     10       6.1560      2.00000
     11       6.4273      2.00000
     12       6.5173      2.00000
     13       6.9684      2.00000
     14       7.2057      2.00000
     15       7.3644      2.00000
     16       7.6982      2.00000
     17       7.9984      2.00000
     18       8.3038      2.00000
     19       8.4737      2.00000
     20       8.7073      2.00159
     21       9.3015      0.39503
     22       9.4672     -0.07089
     23      13.4651     -0.00000
     24      15.1897      0.00000
     25      16.8332      0.00000
     26      17.9525      0.00000
     27      19.3666      0.00000
     28      20.1292      0.00000
     29      21.9380      0.00000
     30      22.9547      0.00000

 k-point    14 :      -0.2000    0.4000    0.0000
  band No.  band energies     occupation 
      1       2.3756      2.00000
      2       3.6263      2.00000
      3       4.0828      2.00000
      4       4.3272      2.00000
      5       4.6227      2.00000
      6       4.7831      2.00000
      7       5.1436      2.00000
      8       5.6372      2.00000
      9       5.9678      2.00000
     10       6.2590      2.00000
     11       6.2684      2.00000
     12       6.4832      2.00000
     13       6.9324      2.00000
     14       7.1916      2.00000
     15       7.5387      2.00000
     16       7.7349      2.00000
     17       7.8163      2.00000
     18       8.2198      2.00000
     19       8.4747      2.00000
     20       8.8809      2.03581
     21       8.9857      2.07055
     22       9.2545      0.74444
     23      13.5135     -0.00000
     24      15.1804      0.00000
     25      16.8318      0.00000
     26      18.3276      0.00000
     27      19.3502      0.00000
     28      19.7515      0.00000
     29      21.9815      0.00000
     30      22.9787      0.00000

 k-point    15 :      -0.4000    0.0000    0.2000
  band No.  band energies     occupation 
      1       2.1376      2.00000
      2       3.8121      2.00000
      3       4.0849      2.00000
      4       4.2741      2.00000
      5       4.6296      2.00000
      6       4.8867      2.00000
      7       5.0812      2.00000
      8       5.4263      2.00000
      9       5.5992      2.00000
     10       6.1622      2.00000
     11       6.4351      2.00000
     12       6.5292      2.00000
     13       6.9543      2.00000
     14       7.2073      2.00000
     15       7.3018      2.00000
     16       7.6730      2.00000
     17       8.0796      2.00000
     18       8.1714      2.00000
     19       8.5544      2.00002
     20       8.9811      2.07088
     21       9.5368     -0.04940
     22       9.7834     -0.00055
     23      13.1164     -0.00000
     24      15.2521      0.00000
     25      16.8711      0.00000
     26      18.0476      0.00000
     27      19.4555      0.00000
     28      19.7533      0.00000
     29      21.9291      0.00000
     30      22.9601      0.00000

 k-point    16 :       0.0000    0.2000    0.4000
  band No.  band energies     occupation 
      1       2.3491      2.00000
      2       3.6209      2.00000
      3       4.2542      2.00000
      4       4.4812      2.00000
      5       4.6525      2.00000
      6       4.9254      2.00000
      7       4.9343      2.00000
      8       5.3558      2.00000
      9       5.5674      2.00000
     10       6.1039      2.00000
     11       6.3425      2.00000
     12       6.5166      2.00000
     13       6.9700      2.00000
     14       7.1624      2.00000
     15       7.4600      2.00000
     16       7.7183      2.00000
     17       7.7812      2.00000
     18       8.3220      2.00000
     19       8.6282      2.00021
     20       8.6489      2.00037
     21       9.4838     -0.06936
     22       9.5846     -0.02857
     23      13.5599     -0.00000
     24      15.0919      0.00000
     25      16.8442      0.00000
     26      18.0063      0.00000
     27      19.4863      0.00000
     28      20.0073      0.00000
     29      21.5468      0.00000
     30      23.4144      0.00000

 k-point    17 :       0.4000    0.4000    0.0000
  band No.  band energies     occupation 
      1       3.2868      2.00000
      2       4.2025      2.00000
      3       4.4764      2.00000
      4       4.8149      2.00000
      5       4.8762      2.00000
      6       5.0911      2.00000
      7       5.2127      2.00000
      8       5.3320      2.00000
      9       5.3905      2.00000
     10       5.8708      2.00000
     11       6.0046      2.00000
     12       6.2787      2.00000
     13       6.9226      2.00000
     14       7.0950      2.00000
     15       7.1108      2.00000
     16       7.3426      2.00000
     17       7.5354      2.00000
     18       8.1133      2.00000
     19       8.4230      2.00000
     20       8.4580      2.00000
     21       9.1790      1.36977
     22      10.1604     -0.00000
     23      11.6350     -0.00000
     24      12.9673     -0.00000
     25      18.8184      0.00000
     26      18.9473      0.00000
     27      20.5000      0.00000
     28      21.1789      0.00000
     29      21.2314      0.00000
     30      21.6518      0.00000

 k-point    18 :       0.0000    0.4000    0.4000
  band No.  band energies     occupation 
      1       3.1813      2.00000
      2       3.9887      2.00000
      3       4.3749      2.00000
      4       4.7742      2.00000
      5       4.9935      2.00000
      6       5.1189      2.00000
      7       5.1385      2.00000
      8       5.4118      2.00000
      9       5.4275      2.00000
     10       5.8950      2.00000
[...]
      3       4.0028      2.00000
      4       4.1410      2.00000
      5       4.1958      2.00000
      6       4.5670      2.00000
      7       4.6936      2.00000
      8       5.7373      2.00000
      9       6.4627      2.00000
     10       6.5528      2.00000
     11       6.6698      2.00000
     12       6.8603      2.00000
     13       7.0448      2.00000
     14       7.3093      2.00000
     15       7.4167      2.00000
     16       7.6346      2.00000
     17       8.3335      2.00000
     18       8.4127      2.00000
     19       8.5492      2.00002
     20       9.1189      1.76703
     21       9.8483     -0.00009
     22      11.8406     -0.00000
     23      12.5039     -0.00000
     24      12.7258     -0.00000
     25      17.6557      0.00000
     26      17.8940      0.00000
     27      18.6092      0.00000
     28      21.1102      0.00000
     29      21.5191      0.00000
     30      21.6831      0.00000

 k-point    21 :       0.4000    0.2000    0.2000
  band No.  band energies     occupation 
      1       2.3948      2.00000
      2       3.7293      2.00000
      3       4.2201      2.00000
      4       4.5607      2.00000
      5       4.5755      2.00000
      6       4.8544      2.00000
      7       5.3650      2.00000
      8       5.5536      2.00000
      9       5.8226      2.00000
     10       6.0220      2.00000
     11       6.3873      2.00000
     12       6.4939      2.00000
     13       6.6954      2.00000
     14       7.0499      2.00000
     15       7.1272      2.00000
     16       7.5787      2.00000
     17       8.1371      2.00000
     18       8.2200      2.00000
     19       8.6583      2.00047
     20       9.0447      2.02129
     21       9.5322     -0.05155
     22       9.8060     -0.00031
     23      13.8169     -0.00000
     24      13.8339     -0.00000
     25      15.5390      0.00000
     26      16.2755      0.00000
     27      20.1144      0.00000
     28      21.5020      0.00000
     29      22.0901      0.00000
     30      22.3522      0.00000

 k-point    22 :       0.2000    0.4000    0.2000
  band No.  band energies     occupation 
      1       2.5603      2.00000
      2       3.6321      2.00000
      3       4.0332      2.00000
      4       4.5258      2.00000
      5       4.6883      2.00000
      6       4.8910      2.00000
      7       5.5435      2.00000
      8       5.6219      2.00000
      9       5.8056      2.00000
     10       6.1119      2.00000
     11       6.4768      2.00000
     12       6.5138      2.00000
     13       6.6185      2.00000
     14       7.0462      2.00000
     15       7.2029      2.00000
     16       7.3025      2.00000
     17       8.1989      2.00000
     18       8.2763      2.00000
     19       8.4590      2.00000
     20       8.9636      2.06928
     21       9.3894      0.00658
     22       9.6741     -0.00655
     23      13.8188     -0.00000
     24      14.0488     -0.00000
     25      15.5851      0.00000
     26      16.1513      0.00000
     27      20.1945      0.00000
     28      21.5728      0.00000
     29      22.2280      0.00000
     30      22.3942      0.00000

 k-point    23 :       0.2000    0.2000    0.4000
  band No.  band energies     occupation 
      1       2.5641      2.00000
      2       3.6322      2.00000
      3       4.1791      2.00000
      4       4.5151      2.00000
      5       4.7034      2.00000
      6       5.0693      2.00000
      7       5.2049      2.00000
      8       5.5369      2.00000
      9       5.7705      2.00000
     10       5.9976      2.00000
     11       6.3775      2.00000
     12       6.4988      2.00000
     13       6.7030      2.00000
     14       7.0709      2.00000
     15       7.1678      2.00000
     16       7.4513      2.00000
     17       8.2131      2.00000
     18       8.2388      2.00000
     19       8.5826      2.00006
     20       8.9038      2.04608
     21       9.4704     -0.07090
     22       9.7540     -0.00115
     23      13.8240     -0.00000
     24      13.9899     -0.00000
     25      15.5694      0.00000
     26      16.2419      0.00000
     27      20.1012      0.00000
     28      21.3496      0.00000
     29      22.1906      0.00000
     30      22.4572      0.00000

 k-point    24 :       0.4000    0.4000    0.2000
  band No.  band energies     occupation 
      1       3.0480      2.00000
      2       3.5550      2.00000
      3       3.8883      2.00000
      4       4.2693      2.00000
      5       5.2015      2.00000
      6       5.5038      2.00000
      7       5.7417      2.00000
      8       5.9231      2.00000
      9       6.0829      2.00000
     10       6.1344      2.00000
     11       6.3422      2.00000
     12       6.5175      2.00000
     13       6.6108      2.00000
     14       6.7326      2.00000
     15       6.8896      2.00000
     16       6.9671      2.00000
     17       7.9483      2.00000
     18       8.3822      2.00000
     19       8.7812      2.00756
     20       9.1098      1.81266
     21       9.2433      0.83660
     22      10.2816     -0.00000
     23      11.5164     -0.00000
     24      12.7201     -0.00000
     25      15.8085      0.00000
     26      17.4800      0.00000
     27      17.9113      0.00000
     28      19.8898      0.00000
     29      22.7623      0.00000
     30      24.5502      0.00000

 k-point    25 :       0.2000    0.4000    0.4000
  band No.  band energies     occupation 
      1       3.0318      2.00000
      2       3.5945      2.00000
      3       3.6575      2.00000
      4       4.2813      2.00000
      5       5.2068      2.00000
      6       5.5034      2.00000
      7       5.7295      2.00000
      8       5.9738      2.00000
      9       6.0948      2.00000
     10       6.1317      2.00000
     11       6.3357      2.00000
     12       6.5247      2.00000
     13       6.6195      2.00000
     14       6.7334      2.00000
     15       6.8862      2.00000
     16       6.9543      2.00000
     17       7.9894      2.00000
     18       8.4133      2.00000
     19       8.9055      2.04687
     20       9.0933      1.88460
     21       9.2210      1.02406
     22      10.1632     -0.00000
     23      11.9968     -0.00000
     24      12.9063     -0.00000
     25      15.5487      0.00000
     26      17.0641      0.00000
     27      17.9407      0.00000
     28      19.8626      0.00000
     29      22.8524      0.00000
     30      24.3961      0.00000

 k-point    26 :       0.4000    0.2000    0.4000
  band No.  band energies     occupation 
      1       3.0413      2.00000
      2       3.5860      2.00000
      3       3.9247      2.00000
      4       4.1102      2.00000
      5       5.1729      2.00000
      6       5.4045      2.00000
      7       5.7157      2.00000
      8       6.0785      2.00000
      9       6.1928      2.00000
     10       6.2259      2.00000
     11       6.4389      2.00000
     12       6.4648      2.00000
     13       6.6090      2.00000
     14       6.7910      2.00000
     15       6.8423      2.00000
     16       6.9017      2.00000
     17       8.1056      2.00000
     18       8.1470      2.00000
     19       8.6064      2.00011
     20       9.2398      0.86552
     21       9.3694      0.06175
     22      10.6502     -0.00000
     23      11.0677     -0.00000
     24      12.6578     -0.00000
     25      15.7808      0.00000
     26      17.5188      0.00000
     27      17.8989      0.00000
     28      19.9503      0.00000
     29      22.6259      0.00000
     30      24.6269      0.00000

 k-point    27 :       0.4000    0.4000    0.4000
  band No.  band energies     occupation 
      1       2.9182      2.00000
      2       3.0447      2.00000
      3       3.2910      2.00000
      4       3.6613      2.00000
      5       5.6351      2.00000
      6       5.7501      2.00000
      7       5.8323      2.00000
      8       6.1194      2.00000
      9       6.1923      2.00000
     10       6.4237      2.00000
     11       6.4302      2.00000
     12       6.6246      2.00000
     13       7.2929      2.00000
     14       7.3554      2.00000
     15       7.5131      2.00000
     16       7.8456      2.00000
     17       8.2961      2.00000
     18       8.7097      2.00168
     19       8.7724      2.00638
     20       9.1915      1.27016
     21       9.7279     -0.00211
     22      10.4989     -0.00000
     23      10.8870     -0.00000
     24      11.1116     -0.00000
     25      14.9952      0.00000
     26      15.3851      0.00000
     27      16.1888      0.00000
     28      17.7090      0.00000
     29      25.2659      0.00000
     30      25.3591      0.00000


--------------------------------------------------------------------------------------------------------


 soft charge-density along one line, spin component           1
         0         1         2         3         4         5         6         7         8         9
x    23.0735    0.0000   -1.4581    0.0000    0.7618    0.0000    0.2696    0.0000   -0.4612    0.0000
x    -0.0470    0.0000    0.0918    0.0000    0.0128    0.0000    0.0000    0.0000
y    23.0735    0.0000    1.4619    0.0000    0.8060    0.0000   -0.2678   -0.0000   -0.4344    0.0000
y     0.0056   -0.0000    0.0894   -0.0000    0.0043    0.0000    0.0000    0.0000
z    23.0735    0.0000    0.4425    0.0000    0.8053    0.0000   -0.1635   -0.0000   -0.4454    0.0000
z     0.0128   -0.0000    0.0906   -0.0000   -0.0062    0.0000    0.0000    0.0000
 total charge-density along one line
x    40.0000    0.0000    3.7329   -0.0000   10.8458   -0.0000    3.2107   -0.0000    1.3921   -0.0000
x     0.4216    0.0000    0.1292    0.0000   -0.0045   -0.0000    0.0024    0.0000    0.0069   -0.0000
x     0.0016    0.0000   -0.0015   -0.0000   -0.0009    0.0000    0.0004    0.0000    0.0006    0.0000
x    -0.0001    0.0000   -0.0006    0.0000
y    40.0000    0.0000   -0.9182    0.0000   10.9280    0.0000   -1.8167    0.0000    1.4458   -0.0000
y    -0.3516   -0.0000    0.1095   -0.0000    0.0396    0.0000   -0.0018   -0.0000   -0.0094    0.0000
y     0.0018   -0.0000    0.0031    0.0000   -0.0009    0.0000   -0.0011    0.0000    0.0005    0.0000
y     0.0003   -0.0000   -0.0005    0.0000
z    40.0000    0.0000   -2.7150   -0.0000   10.8988    0.0000   -2.1452   -0.0000    1.4094   -0.0000
z    -0.3855    0.0000    0.1163    0.0000    0.0167   -0.0000    0.0002    0.0000   -0.0079   -0.0000
z     0.0017    0.0000    0.0025   -0.0000   -0.0009    0.0000   -0.0010   -0.0000    0.0006    0.0000
z     0.0003   -0.0000   -0.0005    0.0000
 
 pseudopotential strength for first ion, spin component:           1
 -2.718   0.000   0.000   0.000   0.000  -2.941   0.000   0.000
  0.000  -2.632   0.000  -0.000  -0.000   0.000  -2.859   0.000
  0.000   0.000  -2.642   0.000  -0.007   0.000   0.000  -2.868
  0.000  -0.000   0.000  -2.690   0.000   0.000  -0.000   0.000
  0.000  -0.000  -0.007   0.000  -2.652   0.000  -0.000  -0.007
 -2.941   0.000   0.000   0.000   0.000  -3.132   0.000   0.000
  0.000  -2.859   0.000  -0.000  -0.000   0.000  -3.053   0.000
  0.000   0.000  -2.868   0.000  -0.007   0.000   0.000  -3.062
  0.000  -0.000   0.000  -2.914   0.000   0.000  -0.000   0.000
  0.000  -0.000  -0.007   0.000  -2.878   0.000  -0.000  -0.007
  0.000  -0.000  -0.008  -0.000   0.006   0.000  -0.000  -0.008
  0.000  -0.000  -0.014  -0.000   0.011   0.000  -0.000  -0.014
 -0.000  -0.000  -0.000   0.000  -0.000  -0.000  -0.000  -0.000
  0.000   0.000  -0.000  -0.000   0.000   0.000   0.000  -0.000
  0.000   0.000   0.000  -0.000  -0.000   0.000   0.000   0.000
 -0.000  -0.000  -0.000   0.000  -0.000  -0.000  -0.000  -0.000
  0.000   0.000  -0.000  -0.000   0.000   0.000   0.000  -0.000
  0.000   0.000   0.000  -0.000  -0.000   0.000   0.000   0.000
 total augmentation occupancy for first ion, spin component:           1
  2.200   0.000  -0.000   0.000  -0.000  -1.458   0.000   0.000   0.000   0.000  -0.000   0.000   0.000   0.000   0.000   0.000
  0.000   4.063   0.000   0.000   0.000   0.000  -2.414   0.000   0.000   0.000   0.000   0.000   0.000   0.000   0.000   0.000
 -0.000   0.000   3.443   0.000  -0.606   0.000   0.000  -1.931   0.000   0.405   0.251  -0.057   0.000   0.000   0.000   0.000
  0.000   0.000   0.000   3.330   0.000   0.000   0.000   0.000  -2.332   0.000   0.000   0.000   0.000   0.000   0.000   0.000
  0.000   0.000  -0.606   0.000   4.573   0.000   0.000   0.403   0.000  -2.771  -0.393   0.081   0.000   0.000   0.000   0.000
 -1.458   0.000   0.000   0.000   0.000   2.361   0.000   0.000   0.000   0.000   0.000   0.000   0.000   0.000   0.000   0.000
  0.000  -2.414   0.000   0.000   0.000   0.000   2.628   0.000   0.000   0.000   0.000   0.000   0.000   0.000   0.000   0.000
  0.000   0.000  -1.931   0.000   0.403   0.000   0.000   2.236   0.000  -0.260  -0.188   0.019   0.000   0.000   0.000   0.000
  0.000   0.000   0.000  -2.332   0.000   0.000   0.000   0.000   3.022   0.000   0.000   0.000   0.000   0.000   0.000   0.000
  0.000   0.000   0.405   0.000  -2.771  -0.000   0.000  -0.260   0.000   2.850   0.314  -0.055   0.000   0.000   0.000   0.000
 -0.000   0.000   0.251   0.000  -0.393   0.000   0.000  -0.188   0.000   0.314   2.190  -0.358   0.000   0.000   0.000   0.000
  0.000   0.000  -0.057   0.000   0.081   0.000   0.000   0.019   0.000  -0.055  -0.358   0.064   0.000   0.000   0.000   0.000
  0.000   0.000   0.000   0.000   0.000   0.000   0.000   0.000   0.000   0.000   0.000   0.000   0.289   0.000   0.000  -0.016
  0.000   0.000   0.000   0.000   0.000   0.000   0.000   0.000   0.000   0.000   0.000   0.000   0.000   0.281   0.000   0.000
  0.000   0.000   0.000   0.000   0.000   0.000   0.000   0.000   0.000   0.000   0.000   0.000   0.000   0.000   0.338   0.000
  0.000   0.000   0.000   0.000   0.000   0.000   0.000   0.000   0.000   0.000   0.000   0.000  -0.016   0.000   0.000   0.001
  0.000   0.000   0.000   0.000   0.000   0.000   0.000   0.000   0.000   0.000   0.000   0.000   0.000  -0.017   0.000   0.000
  0.000   0.000   0.000   0.000   0.000   0.000   0.000   0.000   0.000   0.000   0.000   0.000   0.000   0.000  -0.019   0.000


------------------------ aborting loop because EDIFF is reached ----------------------------------------


    CHARGE:  cpu time    0.0227: real time    0.0227
    FORLOC:  cpu time    0.0013: real time    0.0013
    FORNL :  cpu time    0.1072: real time    0.1072
    STRESS:  cpu time    0.1868: real time    0.1868
    FORCOR:  cpu time    0.0090: real time    0.0090
    FORHAR:  cpu time    0.0026: real time    0.0026
    MIXING:  cpu time    0.0004: real time    0.0004

  FORCE on cell =-STRESS in cart. coord.  units (eV):
  Direction    XX          YY          ZZ          XY          YZ          ZX
  --------------------------------------------------------------------------------------
  Alpha Z   244.65455   244.65455   244.65455
  Ewald   -1143.04101 -1137.78808 -1143.04101     0.00000     0.00000     0.00000
  Hartree   193.79330   205.04823   197.29275    -0.00000    -0.00000    -0.00000
  E(xc)    -202.45206  -202.32360  -202.42005     0.00000    -0.00000     0.00000
  Local     184.07478   170.54061   183.09702     0.00000    -0.00000    -0.00000
  n-local   -29.24188   -27.61853   -30.16206     5.90585     7.54818     6.27321
  augment   261.20935   259.77883   260.83940    -0.00000     0.00000     0.00000
  Kinetic   490.43789   486.85634   488.37039     1.91519     2.76435     1.40611
  Fock        0.00000     0.00000     0.00000     0.00000     0.00000     0.00000
  -------------------------------------------------------------------------------------
  Total      -0.56509    -0.85165    -1.36902    -0.00000     0.00000     0.00000
  in kB     -15.66893   -23.61488   -37.96083    -0.00000     0.00000     0.00000
  external pressure =      -25.75 kB  Pullay stress =        0.00 kB


 VOLUME and BASIS-vectors are now :
 -----------------------------------------------------------------------------
  energy-cutoff  :      280.00
  volume of cell :       57.78
      direct lattice vectors                 reciprocal lattice vectors
     3.866000000  0.000000000  0.000000000     0.258665287  0.000000000  0.000000000
     0.000000000  3.866000000  0.000000000     0.000000000  0.258665287  0.000000000
     0.000000000  0.000000000  3.866000000     0.000000000  0.000000000  0.258665287

  length of vectors
     3.866000000  3.866000000  3.866000000     0.258665287  0.258665287  0.258665287


 FORCES acting on ions
    electron-ion (+dipol)            ewald-force                    non-local-force                 convergence-correction
 -----------------------------------------------------------------------------------------------
   -.334E-13 0.942E-14 0.160E-13   0.892E-14 -.838E-14 -.466E-14   0.983E-24 0.407E-23 -.181E-24   0.120E-12 -.170E-12 0.307E-12
   0.119E-13 0.374E-13 0.640E-14   0.112E-14 0.145E-13 -.285E-14   -.850E-23 -.267E-23 -.206E-23   -.818E-13 0.816E-13 0.924E-13
   0.372E-13 0.808E-14 0.780E-13   -.749E-14 -.139E-13 0.598E-14   0.125E-22 0.495E-24 0.836E-25   -.226E-12 -.148E-12 -.133E-12
   -.664E-13 0.315E-12 0.321E-12   -.120E-14 0.656E-14 0.190E-14   0.513E-24 -.194E-23 -.184E-23   0.117E-12 0.379E-12 -.225E-12
 -----------------------------------------------------------------------------------------------
   -.507E-13 0.370E-12 0.421E-12   0.135E-14 -.120E-14 0.371E-15   0.547E-23 -.345E-25 -.400E-23   -.710E-13 0.142E-12 0.419E-13
 
 
 POSITION                                       TOTAL-FORCE (eV/Angst)
 -----------------------------------------------------------------------------------
      0.00000      0.00000      0.00000         0.000000     -0.000000     -0.000000
      1.93300      1.93300      0.00000         0.000000      0.000000      0.000000
      1.93300      0.00000      1.93300         0.000000     -0.000000      0.000000
      0.00000      1.93300      1.93300        -0.000000      0.000000      0.000000
 -----------------------------------------------------------------------------------
    total drift:                               -0.000000      0.000000      0.000000


--------------------------------------------------------------------------------------------------------



  FREE ENERGIE OF THE ION-ELECTRON SYSTEM (eV)
  ---------------------------------------------------
  free  energy   TOTEN  =       -23.49561695 eV

  energy  without entropy=      -23.48920627  energy(sigma->0) =      -23.49348006
 


--------------------------------------------------------------------------------------------------------


    POTLOK:  cpu time    0.0115: real time    0.0115


--------------------------------------------------------------------------------------------------------


 writing wavefunctions
     LOOP+:  cpu time    3.1037: real time    3.1218
    4ORBIT:  cpu time    0.0000: real time    0.0000

 total amount of memory used by VASP MPI-rank0    51324. kBytes
=======================================================================

   base      :      30000. kBytes
   nonl-proj :       9666. kBytes
   grid      :       2641. kBytes
   one-center:         62. kBytes
   wavefun   :       8955. kBytes
 
  
  
 General timing and accounting informations for this job:
 ========================================================
  
                  Total CPU time used (sec):        3.334
                            User time (sec):        3.298
                          System time (sec):        0.036
                         Elapsed time (sec):        3.347
  
                   Maximum memory used (kb):       60276.
                   Average memory used (kb):          N/A
  
                          Minor page faults:         8455
                          Major page faults:            0
                 Voluntary context switches:           26
