unknown system                          
   1.00000000000000     
     3.752338    0.000000    0.000000
     0.000000    3.752338    0.000000
     0.000000    0.000000    3.752338
   Cu
     4
Direct
  0.000000  0.000000  0.000000
  0.500000  0.500000  0.000000
  0.500000  0.000000  0.500000
  0.000000  0.500000  0.500000
 
   32   32   32
  931.97      874.95      722.98      522.93      326.93      172.99      76.972      33.214      20.198      14.578    
  11.060      8.8223      7.5054      6.9151      6.5396      6.0761      5.8278      6.0761      6.5396      6.9151    
  7.5054      8.8223      11.060      14.578      20.198      33.214      76.972      172.99      326.93      522.93    
  722.98      874.95      874.95      821.18      677.84      489.24      304.79      160.59      71.514      31.628    
  19.826      14.371      10.980      8.8411      7.5956      7.0480      6.7131      6.2992      6.0761      6.2992    
  6.7131      7.0480      7.5956      8.8411      10.980      14.371      19.826      31.628      71.514      160.59    
  304.79      489.24      677.84      821.18      722.98      677.84      557.57      399.69      246.33      128.32    
  57.714      27.809      18.777      13.808      10.769      8.8860      7.8003      7.3196      7.0392      6.7131    
  6.5396      6.7131      7.0392      7.3196      7.8003      8.8860      10.769      13.808      18.777      27.809    
  57.714      128.32      246.33      399.69      557.57      677.84      522.93      489.24      399.69      282.95    
  171.36      88.323      41.681      23.729      17.248      13.043      10.516      8.9668      8.0542      7.6001    
  7.3196      7.0480      6.9151      7.0480      7.3196      7.6001      8.0542      8.9668      10.516      13.043    
  17.248      23.729      41.681      88.323      171.36      282.95      399.69      489.24      326.93      304.79    
  246.33      171.36      102.06      53.642      29.268      20.500      15.526      12.265      10.335      9.1617    
  8.4508      8.0542      7.8003      7.5956      7.5054      7.5956      7.8003      8.0542      8.4508      9.1617    
  10.335      12.265      15.526      20.500      29.268      53.642      102.06      171.36      246.33      304.79    
  172.99      160.59      128.32      88.323      53.642      31.969      22.444      17.540      13.920      11.647    
  10.336      9.5801      9.1617      8.9668      8.8860      8.8411      8.8223      8.8411      8.8860      8.9668    
  9.1617      9.5801      10.336      11.647      13.920      17.540      22.444      31.969      53.642      88.323    
  128.32      160.59      76.972      71.514      57.714      41.681      29.268      22.444      18.301      14.963    
  12.669      11.313      10.616      10.336      10.335      10.516      10.769      10.980      11.060      10.980    
  10.769      10.516      10.335      10.336      10.616      11.313      12.669      14.963      18.301      22.444    
  29.268      41.681      57.714      71.514      33.214      31.628      27.809      23.729      20.500      17.540    
  14.963      13.064      11.898      11.361      11.313      11.647      12.265      13.043      13.808      14.371    
  14.578      14.371      13.808      13.043      12.265      11.647      11.313      11.361      11.898      13.064    
  14.963      17.540      20.500      23.729      27.809      31.628      20.198      19.826      18.777      17.248    
  15.526      13.920      12.669      11.898      11.641      11.898      12.669      13.920      15.526      17.248    
  18.777      19.826      20.198      19.826      18.777      17.248      15.526      13.920      12.669      11.898    
  11.641      11.898      12.669      13.920      15.526      17.248      18.777      19.826      14.578      14.371    
  13.808      13.043      12.265      11.647      11.313      11.361      11.898      13.064      14.963      17.540    
  20.500      23.729      27.809      31.628      33.214      31.628      27.809      23.729      20.500      17.540    
  14.963      13.064      11.898      11.361      11.313      11.647      12.265      13.043      13.808      14.371    
  11.060      10.980      10.769      10.516      10.335      10.336      10.616      11.313      12.669      14.963    
  18.301      22.444      29.268      41.681      57.714      71.514      76.972      71.514      57.714      41.681    
  29.268      22.444      18.301      14.963      12.669      11.313      10.616      10.336      10.335      10.516    
  10.769      10.980      8.8223      8.8411      8.8860      8.9668      9.1617      9.5801      10.336      11.647    
  13.920      17.540      22.444      31.969      53.642      88.323      128.32      160.59      172.99      160.59    
  128.32      88.323      53.642      31.969      22.444      17.540      13.920      11.647      10.336      9.5801    
  9.1617      8.9668      8.8860      8.8411      7.5054      7.5956      7.8003      8.0542      8.4508      9.1617    
  10.335      12.265      15.526      20.500      29.268      53.642      102.06      171.36      246.33      304.79    
  326.93      304.79      246.33      171.36      102.06      53.642      29.268      20.500      15.526      12.265    
  10.335      9.1617      8.4508      8.0542      7.8003      7.5956      6.9151      7.0480      7.3196      7.6001    
  8.0542      8.9668      10.516      13.043      17.248      23.729      41.681      88.323      171.36      282.95    
  399.69      489.24      522.93      489.24      399.69      282.95      171.36      88.323      41.681      23.729    
  17.248      13.043      10.516      8.9668      8.0542      7.6001      7.3196      7.0480      6.5396      6.7131    
  7.0392      7.3196      7.8003      8.8860      10.769      13.808      18.777      27.809      57.714      128.32    
  246.33      399.69      557.57      677.84      722.98      677.84      557.57      399.69      246.33      128.32    
  57.714      27.809      18.777      13.808      10.769      8.8860      7.8003      7.3196      7.0392      6.7131    
  6.0761      6.2992      6.7131      7.0480      7.5956      8.8411      10.980      14.371      19.826      31.628    
  71.514      160.59      304.79      489.24      677.84      821.18      874.95      821.18      677.84      489.24    
  304.79      160.59      71.514      31.628      19.826      14.371      10.980      8.8411      7.5956      7.0480    
  6.7131      6.2992      5.8278      6.0761      6.5396      6.9151      7.5054      8.8223      11.060      14.578    
  20.198      33.214      76.972      172.99      326.93      522.93      722.98      874.95      931.97      874.95    
  722.98      522.93      326.93      172.99      76.972      33.214      20.198      14.578      11.060      8.8223    
  7.5054      6.9151      6.5396      6.0761      6.0761      6.2992      6.7131      7.0480      7.5956      8.8411    
  10.980      14.371      19.826      31.628      71.514      160.59      304.79      489.24      677.84      821.18    
  874.95      821.18      677.84      489.24      304.79      160.59      71.514      31.628      19.826      14.371    
  10.980      8.8411      7.5956      7.0480      6.7131      6.2992      6.5396      6.7131      7.0392      7.3196    
  7.8003      8.8860      10.769      13.808      18.777      27.809      57.714      128.32      246.33      399.69    
  557.57      677.84      722.98      677.84      557.57      399.69      246.33      128.32      57.714      27.809    
  18.777      13.808      10.769      8.8860      7.8003      7.3196      7.0392      6.7131      6.9151      7.0480    
  7.3196      7.6001      8.0542      8.9668      10.516      13.043      17.248      23.729      41.681      88.323    
  171.36      282.95      399.69      489.24      522.93      489.24      399.69      282.95      171.36      88.323    
  41.681      23.729      17.248      13.043      10.516      8.9668      8.0542      7.6001      7.3196      7.0480    
  7.5054      7.5956      7.8003      8.0542      8.4508      9.1617      10.335      12.265      15.526      20.500    
  29.268      53.642      102.06      171.36      246.33      304.79      326.93      304.79      246.33      171.36    
  102.06      53.642      29.268      20.500      15.526      12.265      10.335      9.1617      8.4508      8.0542    
  7.8003      7.5956      8.8223      8.8411      8.8860      8.9668      9.1617      9.5801      10.336      11.647    
  13.920      17.540      22.444      31.969      53.642      88.323      128.32      160.59      172.99      160.59    
  128.32      88.323      53.642      31.969      22.444      17.540      13.920      11.647      10.336      9.5801    
  9.1617      8.9668      8.8860      8.8411      11.060      10.980      10.769      10.516      10.335      10.336    
  10.616      11.313      12.669      14.963      18.301      22.444      29.268      41.681      57.714      71.514    
  76.972      71.514      57.714      41.681      29.268      22.444      18.301      14.963      12.669      11.313    
  10.616      10.336      10.335      10.516      10.769      10.980      14.578      14.371      13.808      13.043    
  12.265      11.647      11.313      11.361      11.898      13.064      14.963      17.540      20.500      23.729    
  27.809      31.628      33.214      31.628      27.809      23.729      20.500      17.540      14.963      13.064    
  11.898      11.361      11.313      11.647      12.265      13.043      13.808      14.371      20.198      19.826    
  18.777      17.248      15.526      13.920      12.669      11.898      11.641      11.898      12.669      13.920    
  15.526      17.248      18.777      19.826      20.198      19.826      18.777      17.248      15.526      13.920    
  12.669      11.898      11.641      11.898      12.669      13.920      15.526      17.248      18.777      19.826    
  33.214      31.628      27.809      23.729      20.500      17.540      14.963      13.064      11.898      11.361    
  11.313      11.647      12.265      13.043      13.808      14.371      14.578      14.371      13.808      13.043    
  12.265      11.647      11.313      11.361      11.898      13.064      14.963      17.540      20.500      23.729    
  27.809      31.628      76.972      71.514      57.714      41.681      29.268      22.444      18.301      14.963    
  12.669      11.313      10.616      10.336      10.335      10.516      10.769      10.980      11.060      10.980    
  10.769      10.516      10.335      10.336      10.616      11.313      12.669      14.963      18.301      22.444    
  29.268      41.681      57.714      71.514      172.99      160.59      128.32      88.323      53.642      31.969    
  22.444      17.540      13.920      11.647      10.336      9.5801      9.1617      8.9668      8.8860      8.8411    
  8.8223      8.8411      8.8860      8.9668      9.1617      9.5801      10.336      11.647      13.920      17.540    
  22.444      31.969      53.642      88.323      128.32      160.59      326.93      304.79      246.33      171.36    
  102.06      53.642      29.268      20.500      15.526      12.265      10.335      9.1617      8.4508      8.0542    
  7.8003      7.5956      7.5054      7.5956      7.8003      8.0542      8.4508      9.1617      10.335      12.265    
  15.526      20.500      29.268      53.642      102.06      171.36      246.33      304.79      522.93      489.24    
  399.69      282.95      171.36      88.323      41.681      23.729      17.248      13.043      10.516      8.9668    
  8.0542      7.6001      7.3196      7.0480      6.9151      7.0480      7.3196      7.6001      8.0542      8.9668    
  10.516      13.043      17.248      23.729      41.681      88.323      171.36      282.95      399.69      489.24    
  722.98      677.84      557.57      399.69      246.33      128.32      57.714      27.809      18.777      13.808    
  10.769      8.8860      7.8003      7.3196      7.0392      6.7131      6.5396      6.7131      7.0392      7.3196    
  7.8003      8.8860      10.769      13.808      18.777      27.809      57.714      128.32      246.33      399.69    
  557.57      677.84      874.95      821.18      677.84      489.24      304.79      160.59      71.514      31.628    
  19.826      14.371      10.980      8.8411      7.5956      7.0480      6.7131      6.2992      6.0761      6.2992    
  6.7131      7.0480      7.5956      8.8411      10.980      14.371      19.826      31.628      71.514      160.59    
  304.79      489.24      677.84      821.18      874.95      821.18      677.84      489.24      304.79      160.59    
  71.514      31.628      19.826      14.371      10.980      8.8411      7.5956      7.0480      6.7131      6.2992    
  6.0761      6.2992      6.7131      7.0480      7.5956      8.8411      10.980      14.371      19.826      31.628    
  71.514      160.59      304.79      489.24      677.84      821.18      821.18      770.46      635.27      457.52    
  284.01      149.04      66.501      30.206      19.461      14.170      10.901      8.8555      7.6760      7.1670    
  6.8684      6.4995      6.2992      6.4995      6.8684      7.1670      7.6760      8.8555      10.901      14.170    
  19.461      30.206      66.501      149.04      284.01      457.52      635.27      770.46      677.84      635.27    
  521.91      373.24      229.21      119.04      53.867      26.788      18.436      13.624      10.695      8.8914    
  7.8602      7.4104      7.1587      6.8684      6.7131      6.8684      7.1587      7.4104      7.8602      8.8914    
  10.695      13.624      18.436      26.788      53.867      119.04      229.21      373.24      521.91      635.27    
  489.24      457.52      373.24      263.56      159.13      82.010      39.289      23.126      16.947      12.883    
  10.448      8.9633      8.0942      7.6664      7.4104      7.1670      7.0480      7.1670      7.4104      7.6664    
  8.0942      8.9633      10.448      12.883      16.947      23.126      39.289      82.010      159.13      263.56    
  373.24      457.52      304.79      284.01      229.21      159.13      94.719      50.173      28.118      20.099    
  15.278      12.133      10.274      9.1479      8.4692      8.0942      7.8602      7.6760      7.5956      7.6760    
  7.8602      8.0942      8.4692      9.1479      10.274      12.133      15.278      20.099      28.118      50.173    
  94.719      159.13      229.21      284.01      160.59      149.04      119.04      82.010      50.173      30.546    
  21.958      17.222      13.728      11.539      10.276      9.5490      9.1479      8.9633      8.8914      8.8555    
  8.8411      8.8555      8.8914      8.9633      9.1479      9.5490      10.276      11.539      13.728      17.222    
  21.958      30.546      50.173      82.010      119.04      149.04      71.514      66.501      53.867      39.289    
  28.118      21.958      17.958      14.732      12.525      11.221      10.548      10.276      10.274      10.448    
  10.695      10.901      10.980      10.901      10.695      10.448      10.274      10.276      10.548      11.221    
  12.525      14.732      17.958      21.958      28.118      39.289      53.867      66.501      31.628      30.206    
  26.788      23.126      20.099      17.222      14.732      12.906      11.786      11.268      11.221      11.539    
  12.133      12.883      13.624      14.170      14.371      14.170      13.624      12.883      12.133      11.539    
  11.221      11.268      11.786      12.906      14.732      17.222      20.099      23.126      26.788      30.206    
  19.826      19.461      18.436      16.947      15.278      13.728      12.525      11.786      11.539      11.786    
  12.525      13.728      15.278      16.947      18.436      19.461      19.826      19.461      18.436      16.947    
  15.278      13.728      12.525      11.786      11.539      11.786      12.525      13.728      15.278      16.947    
  18.436      19.461      14.371      14.170      13.624      12.883      12.133      11.539      11.221      11.268    
  11.786      12.906      14.732      17.222      20.099      23.126      26.788      30.206      31.628      30.206    
  26.788      23.126      20.099      17.222      14.732      12.906      11.786      11.268      11.221      11.539    
  12.133      12.883      13.624      14.170      10.980      10.901      10.695      10.448      10.274      10.276    
  10.548      11.221      12.525      14.732      17.958      21.958      28.118      39.289      53.867      66.501    
  71.514      66.501      53.867      39.289      28.118      21.958      17.958      14.732      12.525      11.221    
  10.548      10.276      10.274      10.448      10.695      10.901      8.8411      8.8555      8.8914      8.9633    
  9.1479      9.5490      10.276      11.539      13.728      17.222      21.958      30.546      50.173      82.010    
  119.04      149.04      160.59      149.04      119.04      82.010      50.173      30.546      21.958      17.222    
  13.728      11.539      10.276      9.5490      9.1479      8.9633      8.8914      8.8555      7.5956      7.6760    
  7.8602      8.0942      8.4692      9.1479      10.274      12.133      15.278      20.099      28.118      50.173    
  94.719      159.13      229.21      284.01      304.79      284.01      229.21      159.13      94.719      50.173    
  28.118      20.099      15.278      12.133      10.274      9.1479      8.4692      8.0942      7.8602      7.6760    
  7.0480      7.1670      7.4104      7.6664      8.0942      8.9633      10.448      12.883      16.947      23.126    
  39.289      82.010      159.13      263.56      373.24      457.52      489.24      457.52      373.24      263.56    
  159.13      82.010      39.289      23.126      16.947      12.883      10.448      8.9633      8.0942      7.6664    
  7.4104      7.1670      6.7131      6.8684      7.1587      7.4104      7.8602      8.8914      10.695      13.624    
  18.436      26.788      53.867      119.04      229.21      373.24      521.91      635.27      677.84      635.27    
  521.91      373.24      229.21      119.04      53.867      26.788      18.436      13.624      10.695      8.8914    
  7.8602      7.4104      7.1587      6.8684      6.2992      6.4995      6.8684      7.1670      7.6760      8.8555    
  10.901      14.170      19.461      30.206      66.501      149.04      284.01      457.52      635.27      770.46    
  821.18      770.46      635.27      457.52      284.01      149.04      66.501      30.206      19.461      14.170    
  10.901      8.8555      7.6760      7.1670      6.8684      6.4995      6.0761      6.2992      6.7131      7.0480    
  7.5956      8.8411      10.980      14.371      19.826      31.628      71.514      160.59      304.79      489.24    
  677.84      821.18      874.95      821.18      677.84      489.24      304.79      160.59      71.514      31.628    
  19.826      14.371      10.980      8.8411      7.5956      7.0480      6.7131      6.2992      6.2992      6.4995    
  6.8684      7.1670      7.6760      8.8555      10.901      14.170      19.461      30.206      66.501      149.04    
  284.01      457.52      635.27      770.46      821.18      770.46      635.27      457.52      284.01      149.04    
  66.501      30.206      19.461      14.170      10.901      8.8555      7.6760      7.1670      6.8684      6.4995    
  6.7131      6.8684      7.1587      7.4104      7.8602      8.8914      10.695      13.624      18.436      26.788    
  53.867      119.04      229.21      373.24      521.91      635.27      677.84      635.27      521.91      373.24    
  229.21      119.04      53.867      26.788      18.436      13.624      10.695      8.8914      7.8602      7.4104    
  7.1587      6.8684      7.0480      7.1670      7.4104      7.6664      8.0942      8.9633      10.448      12.883    
  16.947      23.126      39.289      82.010      159.13      263.56      373.24      457.52      489.24      457.52    
  373.24      263.56      159.13      82.010      39.289      23.126      16.947      12.883      10.448      8.9633    
  8.0942      7.6664      7.4104      7.1670      7.5956      7.6760      7.8602      8.0942      8.4692      9.1479    
  10.274      12.133      15.278      20.099      28.118      50.173      94.719      159.13      229.21      284.01    
  304.79      284.01      229.21      159.13      94.719      50.173      28.118      20.099      15.278      12.133    
  10.274      9.1479      8.4692      8.0942      7.8602      7.6760      8.8411      8.8555      8.8914      8.9633    
  9.1479      9.5490      10.276      11.539      13.728      17.222      21.958      30.546      50.173      82.010    
  119.04      149.04      160.59      149.04      119.04      82.010      50.173      30.546      21.958      17.222    
  13.728      11.539      10.276      9.5490      9.1479      8.9633      8.8914      8.8555      10.980      10.901    
  10.695      10.448      10.274      10.276      10.548      11.221      12.525      14.732      17.958      21.958    
  28.118      39.289      53.867      66.501      71.514      66.501      53.867      39.289      28.118      21.958    
  17.958      14.732      12.525      11.221      10.548      10.276      10.274      10.448      10.695      10.901    
  14.371      14.170      13.624      12.883      12.133      11.539      11.221      11.268      11.786      12.906    
  14.732      17.222      20.099      23.126      26.788      30.206      31.628      30.206      26.788      23.126    
  20.099      17.222      14.732      12.906      11.786      11.268      11.221      11.539      12.133      12.883    
  13.624      14.170      19.826      19.461      18.436      16.947      15.278      13.728      12.525      11.786    
  11.539      11.786      12.525      13.728      15.278      16.947      18.436      19.461      19.826      19.461    
  18.436      16.947      15.278      13.728      12.525      11.786      11.539      11.786      12.525      13.728    
  15.278      16.947      18.436      19.461      31.628      30.206      26.788      23.126      20.099      17.222    
  14.732      12.906      11.786      11.268      11.221      11.539      12.133      12.883      13.624      14.170    
  14.371      14.170      13.624      12.883      12.133      11.539      11.221      11.268      11.786      12.906    
  14.732      17.222      20.099      23.126      26.788      30.206      71.514      66.501      53.867      39.289    
  28.118      21.958      17.958      14.732      12.525      11.221      10.548      10.276      10.274      10.448    
  10.695      10.901      10.980      10.901      10.695      10.448      10.274      10.276      10.548      11.221    
  12.525      14.732      17.958      21.958      28.118      39.289      53.867      66.501      160.59      149.04    
  119.04      82.010      50.173      30.546      21.958      17.222      13.728      11.539      10.276      9.5490    
  9.1479      8.9633      8.8914      8.8555      8.8411      8.8555      8.8914      8.9633      9.1479      9.5490    
  10.276      11.539      13.728      17.222      21.958      30.546      50.173      82.010      119.04      149.04    
  304.79      284.01      229.21      159.13      94.719      50.173      28.118      20.099      15.278      12.133    
  10.274      9.1479      8.4692      8.0942      7.8602      7.6760      7.5956      7.6760      7.8602      8.0942    
  8.4692      9.1479      10.274      12.133      15.278      20.099      28.118      50.173      94.719      159.13    
  229.21      284.01      489.24      457.52      373.24      263.56      159.13      82.010      39.289      23.126    
  16.947      12.883      10.448      8.9633      8.0942      7.6664      7.4104      7.1670      7.0480      7.1670    
  7.4104      7.6664      8.0942      8.9633      10.448      12.883      16.947      23.126      39.289      82.010    
  159.13      263.56      373.24      457.52      677.84      635.27      521.91      373.24      229.21      119.04    
  53.867      26.788      18.436      13.624      10.695      8.8914      7.8602      7.4104      7.1587      6.8684    
  6.7131      6.8684      7.1587      7.4104      7.8602      8.8914      10.695      13.624      18.436      26.788    
  53.867      119.04      229.21      373.24      521.91      635.27      821.18      770.46      635.27      457.52    
  284.01      149.04      66.501      30.206      19.461      14.170      10.901      8.8555      7.6760      7.1670    
  6.8684      6.4995      6.2992      6.4995      6.8684      7.1670      7.6760      8.8555      10.901      14.170    
  19.461      30.206      66.501      149.04      284.01      457.52      635.27      770.46      722.98      677.84    
  557.57      399.69      246.33      128.32      57.714      27.809      18.777      13.808      10.769      8.8860    
  7.8003      7.3196      7.0392      6.7131      6.5396      6.7131      7.0392      7.3196      7.8003      8.8860    
  10.769      13.808      18.777      27.809      57.714      128.32      246.33      399.69      557.57      677.84    
  677.84      635.27      521.91      373.24      229.21      119.04      53.867      26.788      18.436      13.624    
  10.695      8.8914      7.8602      7.4104      7.1587      6.8684      6.7131      6.8684      7.1587      7.4104    
  7.8602      8.8914      10.695      13.624      18.436      26.788      53.867      119.04      229.21      373.24    
  521.91      635.27      557.57      521.91      427.05      303.15      184.24      95.071      44.268      24.334    
  17.483      13.125      10.503      8.9082      8.0019      7.6009      7.3865      7.1587      7.0392      7.1587    
  7.3865      7.6009      8.0019      8.9082      10.503      13.125      17.483      24.334      44.268      95.071    
  184.24      303.15      427.05      521.91      399.69      373.24      303.15      212.49      127.29      65.926    
  33.425      21.614      16.112      12.452      10.276      8.9613      8.1961      7.8174      7.6009      7.4104    
  7.3196      7.4104      7.6009      7.8174      8.1961      8.9613      10.276      12.452      16.112      21.614    
  33.425      65.926      127.29      212.49      303.15      373.24      246.33      229.21      184.24      127.29    
  75.901      41.534      25.341      18.966      14.593      11.776      10.118      9.1206      8.5237      8.1961    
  8.0019      7.8602      7.8003      7.8602      8.0019      8.1961      8.5237      9.1206      10.118      11.776    
  14.593      18.966      25.341      41.534      75.901      127.29      184.24      229.21      128.32      119.04    
  95.071      65.926      41.534      27.101      20.652      16.332      13.198      11.247      10.121      9.4747    
  9.1206      8.9613      8.9082      8.8914      8.8860      8.8914      8.9082      8.9613      9.1206      9.4747    
  10.121      11.247      13.198      16.332      20.652      27.101      41.534      65.926      95.071      119.04    
  57.714      53.867      44.268      33.425      25.341      20.652      16.993      14.091      12.126      10.967    
  10.366      10.121      10.118      10.276      10.503      10.695      10.769      10.695      10.503      10.276    
  10.118      10.121      10.366      10.967      12.126      14.091      16.993      20.652      25.341      33.425    
  44.268      53.867      27.809      26.788      24.334      21.614      18.966      16.332      14.091      12.465    
  11.473      11.013      10.967      11.247      11.776      12.452      13.125      13.624      13.808      13.624    
  13.125      12.452      11.776      11.247      10.967      11.013      11.473      12.465      14.091      16.332    
  18.966      21.614      24.334      26.788      18.777      18.436      17.483      16.112      14.593      13.198    
  12.126      11.473      11.256      11.473      12.126      13.198      14.593      16.112      17.483      18.436    
  18.777      18.436      17.483      16.112      14.593      13.198      12.126      11.473      11.256      11.473    
  12.126      13.198      14.593      16.112      17.483      18.436      13.808      13.624      13.125      12.452    
  11.776      11.247      10.967      11.013      11.473      12.465      14.091      16.332      18.966      21.614    
  24.334      26.788      27.809      26.788      24.334      21.614      18.966      16.332      14.091      12.465    
  11.473      11.013      10.967      11.247      11.776      12.452      13.125      13.624      10.769      10.695    
  10.503      10.276      10.118      10.121      10.366      10.967      12.126      14.091      16.993      20.652    
  25.341      33.425      44.268      53.867      57.714      53.867      44.268      33.425      25.341      20.652    
  16.993      14.091      12.126      10.967      10.366      10.121      10.118      10.276      10.503      10.695    
  8.8860      8.8914      8.9082      8.9613      9.1206      9.4747      10.121      11.247      13.198      16.332    
  20.652      27.101      41.534      65.926      95.071      119.04      128.32      119.04      95.071      65.926    
  41.534      27.101      20.652      16.332      13.198      11.247      10.121      9.4747      9.1206      8.9613    
  8.9082      8.8914      7.8003      7.8602      8.0019      8.1961      8.5237      9.1206      10.118      11.776    
  14.593      18.966      25.341      41.534      75.901      127.29      184.24      229.21      246.33      229.21    