 vasp.6.2.0 18Jan21 (build Mar 17 2021 09:06:54) complex                        
  
 POSCAR found type information on POSCAR Cu
 POSCAR found :  1 types and       4 ions
 LDA part: xc-table for Pade appr. of Perdew
 POSCAR, INCAR and KPOINTS ok, starting setup
 FFT: planning ...
 WAVECAR not read
 WARNING: chargedensity file is incomplete
 entering main loop
       N       E                     dE             d eps       ncg     rms          rms(c)
DAV:   1     0.286094263626E+03    0.28609E+03   -0.14623E+04  2212   0.177E+03
DAV:   2     0.313429960296E+01   -0.28296E+03   -0.27316E+03  2100   0.332E+02
DAV:   3    -0.177184393462E+02   -0.20853E+02   -0.19850E+02  2334   0.134E+02
DAV:   4    -0.181294716132E+02   -0.41103E+00   -0.41048E+00  2400   0.249E+01
DAV:   5    -0.181341542959E+02   -0.46827E-02   -0.46825E-02  2748   0.242E+00    0.148E+01
DAV:   6    -0.164943739161E+02    0.16398E+01   -0.31457E+01  2304   0.111E+02    0.881E+00
DAV:   7    -0.148098461799E+02    0.16845E+01   -0.63904E+00  2366   0.484E+01    0.818E-01
DAV:   8    -0.147937331697E+02    0.16113E-01   -0.10662E-01  2774   0.410E+00    0.866E-01
DAV:   9    -0.147807518454E+02    0.12981E-01   -0.36486E-02  2414   0.373E+00    0.516E-02
DAV:  10    -0.147808514194E+02   -0.99574E-04   -0.10307E-03  2744   0.394E-01    0.126E-02
DAV:  11    -0.147808496684E+02    0.17510E-05   -0.18692E-05  2392   0.422E-02    0.766E-03
DAV:  12    -0.147808524295E+02   -0.27611E-05   -0.98615E-07  1394   0.182E-02    0.743E-04
DAV:  13    -0.147808527503E+02   -0.32084E-06   -0.36614E-07  1320   0.577E-03
   1 F= -.14780853E+02 E0= -.14781782E+02  d E =0.278893E-02
 writing wavefunctions
