unknown system                          
   1.00000000000000     
     3.374435    0.000000    0.000000
     0.000000    3.374435    0.000000
     0.000000    0.000000    3.374435
   Cu
     4
Direct
  0.000000  0.000000  0.000000
  0.500000  0.500000  0.000000
  0.500000  0.000000  0.500000
  0.000000  0.500000  0.500000
 
   32   32   32
  671.90      638.47      547.48      422.49      291.39      177.33      94.029      44.750      23.233      16.586    
  13.069      10.779      9.4437      8.7064      8.2728      7.9969      7.8924      7.9969      8.2728      8.7064    
  9.4437      10.779      13.069      16.586      23.233      44.750      94.029      177.33      291.39      422.49    
  547.48      638.47      638.47      606.59      519.81      400.64      275.75      167.36      88.600      42.440    
  22.593      16.427      13.004      10.788      9.4982      8.7851      8.3650      8.0978      7.9969      8.0978    
  8.3650      8.7851      9.4982      10.788      13.004      16.427      22.593      42.440      88.600      167.36    
  275.75      400.64      519.81      606.59      547.48      519.81      444.53      341.24      233.39      140.56    
  74.218      36.486      21.013      15.972      12.825      10.814      9.6463      8.9965      8.6102      8.3650    
  8.2728      8.3650      8.6102      8.9965      9.6463      10.814      12.825      15.972      21.013      36.486    
  74.218      140.56      233.39      341.24      444.53      519.81      422.49      400.64      341.24      260.04    
  175.96      104.86      55.686      29.270      19.232      15.300      12.579      10.874      9.8864      9.3308    
  8.9965      8.7851      8.7064      8.7851      8.9965      9.3308      9.8864      10.874      12.579      15.300    
  19.232      29.270      55.686      104.86      175.96      260.04      341.24      400.64      291.39      275.75    
  233.39      175.96      117.54      69.726      38.504      23.242      17.709      14.539      12.365      11.044    
  10.297      9.8864      9.6463      9.4982      9.4437      9.4982      9.6463      9.8864      10.297      11.044    
  12.365      14.539      17.709      23.242      38.504      69.726      117.54      175.96      233.39      275.75    
  177.33      167.36      140.56      104.86      69.726      42.584      26.495      19.536      16.264      13.858    
  12.320      11.461      11.044      10.874      10.814      10.788      10.779      10.788      10.814      10.874    
  11.044      11.461      12.320      13.858      16.264      19.536      26.495      42.584      69.726      104.86    
  140.56      167.36      94.029      88.600      74.218      55.686      38.504      26.495      20.294      17.279    
  14.990      13.445      12.614      12.320      12.365      12.579      12.825      13.004      13.069      13.004    
  12.825      12.579      12.365      12.320      12.614      13.445      14.990      17.279      20.294      26.495    
  38.504      55.686      74.218      88.600      44.750      42.440      36.486      29.270      23.242      19.536    
  17.279      15.415      14.118      13.481      13.445      13.858      14.539      15.300      15.972      16.427    
  16.586      16.427      15.972      15.300      14.539      13.858      13.445      13.481      14.118      15.415    
  17.279      19.536      23.242      29.270      36.486      42.440      23.233      22.593      21.013      19.232    
  17.709      16.264      14.990      14.118      13.809      14.118      14.990      16.264      17.709      19.232    
  21.013      22.593      23.233      22.593      21.013      19.232      17.709      16.264      14.990      14.118    
  13.809      14.118      14.990      16.264      17.709      19.232      21.013      22.593      16.586      16.427    
  15.972      15.300      14.539      13.858      13.445      13.481      14.118      15.415      17.279      19.536    
  23.242      29.270      36.486      42.440      44.750      42.440      36.486      29.270      23.242      19.536    
  17.279      15.415      14.118      13.481      13.445      13.858      14.539      15.300      15.972      16.427    
  13.069      13.004      12.825      12.579      12.365      12.320      12.614      13.445      14.990      17.279    
  20.294      26.495      38.504      55.686      74.218      88.600      94.029      88.600      74.218      55.686    
  38.504      26.495      20.294      17.279      14.990      13.445      12.614      12.320      12.365      12.579    
  12.825      13.004      10.779      10.788      10.814      10.874      11.044      11.461      12.320      13.858    
  16.264      19.536      26.495      42.584      69.726      104.86      140.56      167.36      177.33      167.36    
  140.56      104.86      69.726      42.584      26.495      19.536      16.264      13.858      12.320      11.461    
  11.044      10.874      10.814      10.788      9.4437      9.4982      9.6463      9.8864      10.297      11.044    
  12.365      14.539      17.709      23.242      38.504      69.726      117.54      175.96      233.39      275.75    
  291.39      275.75      233.39      175.96      117.54      69.726      38.504      23.242      17.709      14.539    
  12.365      11.044      10.297      9.8864      9.6463      9.4982      8.7064      8.7851      8.9965      9.3308    
  9.8864      10.874      12.579      15.300      19.232      29.270      55.686      104.86      175.96      260.04    
  341.24      400.64      422.49      400.64      341.24      260.04      175.96      104.86      55.686      29.270    
  19.232      15.300      12.579      10.874      9.8864      9.3308      8.9965      8.7851      8.2728      8.3650    
  8.6102      8.9965      9.6463      10.814      12.825      15.972      21.013      36.486      74.218      140.56    
  233.39      341.24      444.53      519.81      547.48      519.81      444.53      341.24      233.39      140.56    
  74.218      36.486      21.013      15.972      12.825      10.814      9.6463      8.9965      8.6102      8.3650    
  7.9969      8.0978      8.3650      8.7851      9.4982      10.788      13.004      16.427      22.593      42.440    
  88.600      167.36      275.75      400.64      519.81      606.59      638.47      606.59      519.81      400.64    
  275.75      167.36      88.600      42.440      22.593      16.427      13.004      10.788      9.4982      8.7851    
  8.3650      8.0978      7.8924      7.9969      8.2728      8.7064      9.4437      10.779      13.069      16.586    
  23.233      44.750      94.029      177.33      291.39      422.49      547.48      638.47      671.90      638.47    
  547.48      422.49      291.39      177.33      94.029      44.750      23.233      16.586      13.069      10.779    
  9.4437      8.7064      8.2728      7.9969      7.9969      8.0978      8.3650      8.7851      9.4982      10.788    
  13.004      16.427      22.593      42.440      88.600      167.36      275.75      400.64      519.81      606.59    
  638.47      606.59      519.81      400.64      275.75      167.36      88.600      42.440      22.593      16.427    
  13.004      10.788      9.4982      8.7851      8.3650      8.0978      8.2728      8.3650      8.6102      8.9965    
  9.6463      10.814      12.825      15.972      21.013      36.486      74.218      140.56      233.39      341.24    
  444.53      519.81      547.48      519.81      444.53      341.24      233.39      140.56      74.218      36.486    
  21.013      15.972      12.825      10.814      9.6463      8.9965      8.6102      8.3650      8.7064      8.7851    
  8.9965      9.3308      9.8864      10.874      12.579      15.300      19.232      29.270      55.686      104.86    
  175.96      260.04      341.24      400.64      422.49      400.64      341.24      260.04      175.96      104.86    
  55.686      29.270      19.232      15.300      12.579      10.874      9.8864      9.3308      8.9965      8.7851    
  9.4437      9.4982      9.6463      9.8864      10.297      11.044      12.365      14.539      17.709      23.242    
  38.504      69.726      117.54      175.96      233.39      275.75      291.39      275.75      233.39      175.96    
  117.54      69.726      38.504      23.242      17.709      14.539      12.365      11.044      10.297      9.8864    
  9.6463      9.4982      10.779      10.788      10.814      10.874      11.044      11.461      12.320      13.858    
  16.264      19.536      26.495      42.584      69.726      104.86      140.56      167.36      177.33      167.36    
  140.56      104.86      69.726      42.584      26.495      19.536      16.264      13.858      12.320      11.461    
  11.044      10.874      10.814      10.788      13.069      13.004      12.825      12.579      12.365      12.320    
  12.614      13.445      14.990      17.279      20.294      26.495      38.504      55.686      74.218      88.600    
  94.029      88.600      74.218      55.686      38.504      26.495      20.294      17.279      14.990      13.445    
  12.614      12.320      12.365      12.579      12.825      13.004      16.586      16.427      15.972      15.300    
  14.539      13.858      13.445      13.481      14.118      15.415      17.279      19.536      23.242      29.270    
  36.486      42.440      44.750      42.440      36.486      29.270      23.242      19.536      17.279      15.415    
  14.118      13.481      13.445      13.858      14.539      15.300      15.972      16.427      23.233      22.593    
  21.013      19.232      17.709      16.264      14.990      14.118      13.809      14.118      14.990      16.264    
  17.709      19.232      21.013      22.593      23.233      22.593      21.013      19.232      17.709      16.264    
  14.990      14.118      13.809      14.118      14.990      16.264      17.709      19.232      21.013      22.593    
  44.750      42.440      36.486      29.270      23.242      19.536      17.279      15.415      14.118      13.481    
  13.445      13.858      14.539      15.300      15.972      16.427      16.586      16.427      15.972      15.300    
  14.539      13.858      13.445      13.481      14.118      15.415      17.279      19.536      23.242      29.270    
  36.486      42.440      94.029      88.600      74.218      55.686      38.504      26.495      20.294      17.279    
  14.990      13.445      12.614      12.320      12.365      12.579      12.825      13.004      13.069      13.004    
  12.825      12.579      12.365      12.320      12.614      13.445      14.990      17.279      20.294      26.495    
  38.504      55.686      74.218      88.600      177.33      167.36      140.56      104.86      69.726      42.584    
  26.495      19.536      16.264      13.858      12.320      11.461      11.044      10.874      10.814      10.788    
  10.779      10.788      10.814      10.874      11.044      11.461      12.320      13.858      16.264      19.536    
  26.495      42.584      69.726      104.86      140.56      167.36      291.39      275.75      233.39      175.96    
  117.54      69.726      38.504      23.242      17.709      14.539      12.365      11.044      10.297      9.8864    
  9.6463      9.4982      9.4437      9.4982      9.6463      9.8864      10.297      11.044      12.365      14.539    
  17.709      23.242      38.504      69.726      117.54      175.96      233.39      275.75      422.49      400.64    
  341.24      260.04      175.96      104.86      55.686      29.270      19.232      15.300      12.579      10.874    
  9.8864      9.3308      8.9965      8.7851      8.7064      8.7851      8.9965      9.3308      9.8864      10.874    
  12.579      15.300      19.232      29.270      55.686      104.86      175.96      260.04      341.24      400.64    
  547.48      519.81      444.53      341.24      233.39      140.56      74.218      36.486      21.013      15.972    
  12.825      10.814      9.6463      8.9965      8.6102      8.3650      8.2728      8.3650      8.6102      8.9965    
  9.6463      10.814      12.825      15.972      21.013      36.486      74.218      140.56      233.39      341.24    
  444.53      519.81      638.47      606.59      519.81      400.64      275.75      167.36      88.600      42.440    
  22.593      16.427      13.004      10.788      9.4982      8.7851      8.3650      8.0978      7.9969      8.0978    
  8.3650      8.7851      9.4982      10.788      13.004      16.427      22.593      42.440      88.600      167.36    
  275.75      400.64      519.81      606.59      638.47      606.59      519.81      400.64      275.75      167.36    
  88.600      42.440      22.593      16.427      13.004      10.788      9.4982      8.7851      8.3650      8.0978    
  7.9969      8.0978      8.3650      8.7851      9.4982      10.788      13.004      16.427      22.593      42.440    
  88.600      167.36      275.75      400.64      519.81      606.59      606.59      576.18      493.44      379.82    
  260.88      157.92      83.495      40.296      22.010      16.269      12.941      10.797      9.5507      8.8611    
  8.4541      8.1954      8.0978      8.1954      8.4541      8.8611      9.5507      10.797      12.941      16.269    
  22.010      40.296      83.495      157.92      260.88      379.82      493.44      576.18      519.81      493.44    
  421.67      323.24      220.61      132.55      69.988      34.783      20.573      15.821      12.764      10.821    
  9.6937      9.0656      8.6914      8.4541      8.3650      8.4541      8.6914      9.0656      9.6937      10.821    
  12.764      15.821      20.573      34.783      69.988      132.55      220.61      323.24      421.67      493.44    
  400.64      379.82      323.24      245.96      166.11      98.838      52.644      28.136      18.945      15.160    
  12.523      10.878      9.9258      9.3892      9.0656      8.8611      8.7851      8.8611      9.0656      9.3892    
  9.9258      10.878      12.523      15.160      18.945      28.136      52.644      98.838      166.11      245.96    
  323.24      379.82      275.75      260.88      220.61      166.11      110.81      65.791      36.662      22.625    
  17.498      14.414      12.313      11.040      10.321      9.9258      9.6937      9.5507      9.4982      9.5507    
  9.6937      9.9258      10.321      11.040      12.313      14.414      17.498      22.625      36.662      65.791    
  110.81      166.11      220.61      260.88      167.36      157.92      132.55      98.838      65.791      40.449    
  25.603      19.236      16.079      13.748      12.265      11.440      11.040      10.878      10.821      10.797    
  10.788      10.797      10.821      10.878      11.040      11.440      12.265      13.748      16.079      19.236    
  25.603      40.449      65.791      98.838      132.55      157.92      88.600      83.495      69.988      52.644    
  36.662      25.603      19.941      17.060      14.835      13.343      12.545      12.265      12.313      12.523    
  12.764      12.941      13.004      12.941      12.764      12.523      12.313      12.265      12.545      13.343    
  14.835      17.060      19.941      25.603      36.662      52.644      69.988      83.495      42.440      40.296    
  34.783      28.136      22.625      19.236      17.060      15.244      13.988      13.375      13.343      13.748    
  14.414      15.160      15.821      16.269      16.427      16.269      15.821      15.160      14.414      13.748    
  13.343      13.375      13.988      15.244      17.060      19.236      22.625      28.136      34.783      40.296    
  22.593      22.010      20.573      18.945      17.498      16.079      14.835      13.988      13.688      13.988    
  14.835      16.079      17.498      18.945      20.573      22.010      22.593      22.010      20.573      18.945    
  17.498      16.079      14.835      13.988      13.688      13.988      14.835      16.079      17.498      18.945    
  20.573      22.010      16.427      16.269      15.821      15.160      14.414      13.748      13.343      13.375    
  13.988      15.244      17.060      19.236      22.625      28.136      34.783      40.296      42.440      40.296    
  34.783      28.136      22.625      19.236      17.060      15.244      13.988      13.375      13.343      13.748    
  14.414      15.160      15.821      16.269      13.004      12.941      12.764      12.523      12.313      12.265    
  12.545      13.343      14.835      17.060      19.941      25.603      36.662      52.644      69.988      83.495    
  88.600      83.495      69.988      52.644      36.662      25.603      19.941      17.060      14.835      13.343    
  12.545      12.265      12.313      12.523      12.764      12.941      10.788      10.797      10.821      10.878    
  11.040      11.440      12.265      13.748      16.079      19.236      25.603      40.449      65.791      98.838    
  132.55      157.92      167.36      157.92      132.55      98.838      65.791      40.449      25.603      19.236    
  16.079      13.748      12.265      11.440      11.040      10.878      10.821      10.797      9.4982      9.5507    
  9.6937      9.9258      10.321      11.040      12.313      14.414      17.498      22.625      36.662      65.791    
  110.81      166.11      220.61      260.88      275.75      260.88      220.61      166.11      110.81      65.791    
  36.662      22.625      17.498      14.414      12.313      11.040      10.321      9.9258      9.6937      9.5507    
  8.7851      8.8611      9.0656      9.3892      9.9258      10.878      12.523      15.160      18.945      28.136    
  52.644      98.838      166.11      245.96      323.24      379.82      400.64      379.82      323.24      245.96    
  166.11      98.838      52.644      28.136      18.945      15.160      12.523      10.878      9.9258      9.3892    
  9.0656      8.8611      8.3650      8.4541      8.6914      9.0656      9.6937      10.821      12.764      15.821    
  20.573      34.783      69.988      132.55      220.61      323.24      421.67      493.44      519.81      493.44    
  421.67      323.24      220.61      132.55      69.988      34.783      20.573      15.821      12.764      10.821    
  9.6937      9.0656      8.6914      8.4541      8.0978      8.1954      8.4541      8.8611      9.5507      10.797    
  12.941      16.269      22.010      40.296      83.495      157.92      260.88      379.82      493.44      576.18    
  606.59      576.18      493.44      379.82      260.88      157.92      83.495      40.296      22.010      16.269    
  12.941      10.797      9.5507      8.8611      8.4541      8.1954      7.9969      8.0978      8.3650      8.7851    
  9.4982      10.788      13.004      16.427      22.593      42.440      88.600      167.36      275.75      400.64    
  519.81      606.59      638.47      606.59      519.81      400.64      275.75      167.36      88.600      42.440    
  22.593      16.427      13.004      10.788      9.4982      8.7851      8.3650      8.0978      8.0978      8.1954    
  8.4541      8.8611      9.5507      10.797      12.941      16.269      22.010      40.296      83.495      157.92    
  260.88      379.82      493.44      576.18      606.59      576.18      493.44      379.82      260.88      157.92    
  83.495      40.296      22.010      16.269      12.941      10.797      9.5507      8.8611      8.4541      8.1954    
  8.3650      8.4541      8.6914      9.0656      9.6937      10.821      12.764      15.821      20.573      34.783    
  69.988      132.55      220.61      323.24      421.67      493.44      519.81      493.44      421.67      323.24    
  220.61      132.55      69.988      34.783      20.573      15.821      12.764      10.821      9.6937      9.0656    
  8.6914      8.4541      8.7851      8.8611      9.0656      9.3892      9.9258      10.878      12.523      15.160    
  18.945      28.136      52.644      98.838      166.11      245.96      323.24      379.82      400.64      379.82    
  323.24      245.96      166.11      98.838      52.644      28.136      18.945      15.160      12.523      10.878    
  9.9258      9.3892      9.0656      8.8611      9.4982      9.5507      9.6937      9.9258      10.321      11.040    
  12.313      14.414      17.498      22.625      36.662      65.791      110.81      166.11      220.61      260.88    
  275.75      260.88      220.61      166.11      110.81      65.791      36.662      22.625      17.498      14.414    
  12.313      11.040      10.321      9.9258      9.6937      9.5507      10.788      10.797      10.821      10.878    
  11.040      11.440      12.265      13.748      16.079      19.236      25.603      40.449      65.791      98.838    
  132.55      157.92      167.36      157.92      132.55      98.838      65.791      40.449      25.603      19.236    
  16.079      13.748      12.265      11.440      11.040      10.878      10.821      10.797      13.004      12.941    
  12.764      12.523      12.313      12.265      12.545      13.343      14.835      17.060      19.941      25.603    
  36.662      52.644      69.988      83.495      88.600      83.495      69.988      52.644      36.662      25.603    
  19.941      17.060      14.835      13.343      12.545      12.265      12.313      12.523      12.764      12.941    
  16.427      16.269      15.821      15.160      14.414      13.748      13.343      13.375      13.988      15.244    
  17.060      19.236      22.625      28.136      34.783      40.296      42.440      40.296      34.783      28.136    
  22.625      19.236      17.060      15.244      13.988      13.375      13.343      13.748      14.414      15.160    
  15.821      16.269      22.593      22.010      20.573      18.945      17.498      16.079      14.835      13.988    
  13.688      13.988      14.835      16.079      17.498      18.945      20.573      22.010      22.593      22.010    
  20.573      18.945      17.498      16.079      14.835      13.988      13.688      13.988      14.835      16.079    
  17.498      18.945      20.573      22.010      42.440      40.296      34.783      28.136      22.625      19.236    
  17.060      15.244      13.988      13.375      13.343      13.748      14.414      15.160      15.821      16.269    
  16.427      16.269      15.821      15.160      14.414      13.748      13.343      13.375      13.988      15.244    
  17.060      19.236      22.625      28.136      34.783      40.296      88.600      83.495      69.988      52.644    
  36.662      25.603      19.941      17.060      14.835      13.343      12.545      12.265      12.313      12.523    
  12.764      12.941      13.004      12.941      12.764      12.523      12.313      12.265      12.545      13.343    
  14.835      17.060      19.941      25.603      36.662      52.644      69.988      83.495      167.36      157.92    
  132.55      98.838      65.791      40.449      25.603      19.236      16.079      13.748      12.265      11.440    
  11.040      10.878      10.821      10.797      10.788      10.797      10.821      10.878      11.040      11.440    
  12.265      13.748      16.079      19.236      25.603      40.449      65.791      98.838      132.55      157.92    
  275.75      260.88      220.61      166.11      110.81      65.791      36.662      22.625      17.498      14.414    
  12.313      11.040      10.321      9.9258      9.6937      9.5507      9.4982      9.5507      9.6937      9.9258    
  10.321      11.040      12.313      14.414      17.498      22.625      36.662      65.791      110.81      166.11    
  220.61      260.88      400.64      379.82      323.24      245.96      166.11      98.838      52.644      28.136    
  18.945      15.160      12.523      10.878      9.9258      9.3892      9.0656      8.8611      8.7851      8.8611    
  9.0656      9.3892      9.9258      10.878      12.523      15.160      18.945      28.136      52.644      98.838    
  166.11      245.96      323.24      379.82      519.81      493.44      421.67      323.24      220.61      132.55    
  69.988      34.783      20.573      15.821      12.764      10.821      9.6937      9.0656      8.6914      8.4541    
  8.3650      8.4541      8.6914      9.0656      9.6937      10.821      12.764      15.821      20.573      34.783    
  69.988      132.55      220.61      323.24      421.67      493.44      606.59      576.18      493.44      379.82    
  260.88      157.92      83.495      40.296      22.010      16.269      12.941      10.797      9.5507      8.8611    
  8.4541      8.1954      8.0978      8.1954      8.4541      8.8611      9.5507      10.797      12.941      16.269    
  22.010      40.296      83.495      157.92      260.88      379.82      493.44      576.18      547.48      519.81    
  444.53      341.24      233.39      140.56      74.218      36.486      21.013      15.972      12.825      10.814    
  9.6463      8.9965      8.6102      8.3650      8.2728      8.3650      8.6102      8.9965      9.6463      10.814    
  12.825      15.972      21.013      36.486      74.218      140.56      233.39      341.24      444.53      519.81    
  519.81      493.44      421.67      323.24      220.61      132.55      69.988      34.783      20.573      15.821    
  12.764      10.821      9.6937      9.0656      8.6914      8.4541      8.3650      8.4541      8.6914      9.0656    
  9.6937      10.821      12.764      15.821      20.573      34.783      69.988      132.55      220.61      323.24    
  421.67      493.44      444.53      421.67      359.49      274.39      186.09      111.10      58.852      30.437    
  19.484      15.393      12.597      10.840      9.8236      9.2525      8.9091      8.6914      8.6102      8.6914    
  8.9091      9.2525      9.8236      10.840      12.597      15.393      19.484      30.437      58.852      111.10    
  186.09      274.39      359.49      421.67      341.24      323.24      274.39      207.86      139.58      82.805    
  44.712      25.278      18.203      14.767      12.371      10.890      10.035      9.5486      9.2525      9.0656    
  8.9965      9.0656      9.2525      9.5486      10.035      10.890      12.371      14.767      18.203      25.278    
  44.712      82.805      139.58      207.86      274.39      323.24      233.39      220.61      186.09      139.58    
  92.847      55.440      31.939      21.087      16.897      14.067      12.171      11.033      10.391      10.035    
  9.8236      9.6937      9.6463      9.6937      9.8236      10.035      10.391      11.033      12.171      14.067    
  16.897      21.087      31.939      55.440      92.847      139.58      186.09      220.61      140.56      132.55    
  111.10      82.805      55.440      34.941      23.364      18.445      15.562      13.446      12.118      11.386    
  11.033      10.890      10.840      10.821      10.814      10.821      10.840      10.890      11.033      11.386    
  12.118      13.446      15.562      18.445      23.364      34.941      55.440      82.805      111.10      132.55    
  74.218      69.988      58.852      44.712      31.939      23.364      19.027      16.442      14.408      13.066    
  12.358      12.118      12.171      12.371      12.597      12.764      12.825      12.764      12.597      12.371    
  12.171      12.118      12.358      13.066      14.408      16.442      19.027      23.364      31.939      44.712    
  58.852      69.988      36.486      34.783      30.437      25.278      21.087      18.445      16.442      14.769    
  13.630      13.084      13.066      13.446      14.067      14.767      15.393      15.821      15.972      15.821    
  15.393      14.767      14.067      13.446      13.066      13.084      13.630      14.769      16.442      18.445    
  21.087      25.278      30.437      34.783      21.013      20.573      19.484      18.203      16.897      15.562    
  14.408      13.630      13.356      13.630      14.408      15.562      16.897      18.203      19.484      20.573    
  21.013      20.573      19.484      18.203      16.897      15.562      14.408      13.630      13.356      13.630    
  14.408      15.562      16.897      18.203      19.484      20.573      15.972      15.821      15.393      14.767    
  14.067      13.446      13.066      13.084      13.630      14.769      16.442      18.445      21.087      25.278    
  30.437      34.783      36.486      34.783      30.437      25.278      21.087      18.445      16.442      14.769    
  13.630      13.084      13.066      13.446      14.067      14.767      15.393      15.821      12.825      12.764    
  12.597      12.371      12.171      12.118      12.358      13.066      14.408      16.442      19.027      23.364    
  31.939      44.712      58.852      69.988      74.218      69.988      58.852      44.712      31.939      23.364    
  19.027      16.442      14.408      13.066      12.358      12.118      12.171      12.371      12.597      12.764    
  10.814      10.821      10.840      10.890      11.033      11.386      12.118      13.446      15.562      18.445    
  23.364      34.941      55.440      82.805      111.10      132.55      140.56      132.55      111.10      82.805    
  55.440      34.941      23.364      18.445      15.562      13.446      12.118      11.386      11.033      10.890    
  10.840      10.821      9.6463      9.6937      9.8236      10.035      10.391      11.033      12.171      14.067    
  16.897      21.087      31.939      55.440      92.847      139.58      186.09      220.61      233.39      220.61    