unknown system                          
   1.00000000000000     
     3.374435    0.000000    0.000000
     0.000000    3.374435    0.000000
     0.000000    0.000000    3.374435
   Cu
     4
Direct
  0.000000  0.000000  0.000000
  0.500000  0.500000  0.000000
  0.500000  0.000000  0.500000
  0.000000  0.500000  0.500000
 
   32   32   32
 0.67190057604E+03 0.63846782365E+03 0.54747961465E+03 0.42248961516E+03 0.29139162160E+03
 0.17733209031E+03 0.94028536567E+02 0.44750144790E+02 0.23233414501E+02 0.16586371642E+02
 0.13068813049E+02 0.10779124109E+02 0.94437242078E+01 0.87064475094E+01 0.82728315061E+01
 0.79968691782E+01 0.78923939346E+01 0.79968691782E+01 0.82728315061E+01 0.87064475094E+01
 0.94437242078E+01 0.10779124109E+02 0.13068813049E+02 0.16586371642E+02 0.23233414501E+02
 0.44750144790E+02 0.94028536567E+02 0.17733209031E+03 0.29139162160E+03 0.42248961516E+03
 0.54747961465E+03 0.63846782365E+03 0.63846782365E+03 0.60658560026E+03 0.51981431369E+03
 0.40063879159E+03 0.27575357740E+03 0.16736370906E+03 0.88600228734E+02 0.42439902511E+02
 0.22593009828E+02 0.16426771524E+02 0.13004355993E+02 0.10788373000E+02 0.94982033913E+01
 0.87851114999E+01 0.83649825416E+01 0.80978368654E+01 0.79968691782E+01 0.80978368654E+01
 0.83649825416E+01 0.87851114999E+01 0.94982033913E+01 0.10788373000E+02 0.13004355993E+02
 0.16426771524E+02 0.22593009828E+02 0.42439902511E+02 0.88600228734E+02 0.16736370906E+03
 0.27575357740E+03 0.40063879159E+03 0.51981431369E+03 0.60658560026E+03 0.54747961465E+03
 0.51981431369E+03 0.44453142620E+03 0.34124431836E+03 0.23338963621E+03 0.14056161686E+03
 0.74217871858E+02 0.36486284823E+02 0.21013373807E+02 0.15972387825E+02 0.12824527313E+02
 0.10813869710E+02 0.96462991750E+01 0.89964592324E+01 0.86101852651E+01 0.83649825416E+01
 0.82728315061E+01 0.83649825416E+01 0.86101852651E+01 0.89964592324E+01 0.96462991750E+01
 0.10813869710E+02 0.12824527313E+02 0.15972387825E+02 0.21013373807E+02 0.36486284823E+02
 0.74217871858E+02 0.14056161686E+03 0.23338963621E+03 0.34124431836E+03 0.44453142620E+03
 0.51981431369E+03 0.42248961516E+03 0.40063879159E+03 0.34124431836E+03 0.26004063034E+03
 0.17596420984E+03 0.10486357683E+03 0.55685657130E+02 0.29270289234E+02 0.19232156606E+02
 0.15299811546E+02 0.12579100082E+02 0.10873801742E+02 0.98864417967E+01 0.93308386211E+01
 0.89964592324E+01 0.87851114999E+01 0.87064475094E+01 0.87851114999E+01 0.89964592324E+01
 0.93308386211E+01 0.98864417967E+01 0.10873801742E+02 0.12579100082E+02 0.15299811546E+02
 0.19232156606E+02 0.29270289234E+02 0.55685657130E+02 0.10486357683E+03 0.17596420984E+03
 0.26004063034E+03 0.34124431836E+03 0.40063879159E+03 0.29139162160E+03 0.27575357740E+03
 0.23338963621E+03 0.17596420984E+03 0.11754194666E+03 0.69725975868E+02 0.38503706808E+02
 0.23242363363E+02 0.17709489347E+02 0.14538652419E+02 0.12364787559E+02 0.11043667836E+02
 0.10296811218E+02 0.98864417967E+01 0.96462991750E+01 0.94982033913E+01 0.94437242078E+01
 0.94982033913E+01 0.96462991750E+01 0.98864417967E+01 0.10296811218E+02 0.11043667836E+02
 0.12364787559E+02 0.14538652419E+02 0.17709489347E+02 0.23242363363E+02 0.38503706808E+02
 0.69725975868E+02 0.11754194666E+03 0.17596420984E+03 0.23338963621E+03 0.27575357740E+03
 0.17733209031E+03 0.16736370906E+03 0.14056161686E+03 0.10486357683E+03 0.69725975868E+02
 0.42583935848E+02 0.26494589513E+02 0.19535698079E+02 0.16264001289E+02 0.13858134738E+02
 0.12319530195E+02 0.11461098447E+02 0.11043667836E+02 0.10873801742E+02 0.10813869710E+02
 0.10788373000E+02 0.10779124109E+02 0.10788373000E+02 0.10813869710E+02 0.10873801742E+02
 0.11043667836E+02 0.11461098447E+02 0.12319530195E+02 0.13858134738E+02 0.16264001289E+02
 0.19535698079E+02 0.26494589513E+02 0.42583935848E+02 0.69725975868E+02 0.10486357683E+03
 0.14056161686E+03 0.16736370906E+03 0.94028536567E+02 0.88600228734E+02 0.74217871858E+02
 0.55685657130E+02 0.38503706808E+02 0.26494589513E+02 0.20294194868E+02 0.17279231403E+02
 0.14989637762E+02 0.13444798415E+02 0.12613773900E+02 0.12319530195E+02 0.12364787559E+02
 0.12579100082E+02 0.12824527313E+02 0.13004355993E+02 0.13068813049E+02 0.13004355993E+02
 0.12824527313E+02 0.12579100082E+02 0.12364787559E+02 0.12319530195E+02 0.12613773900E+02
 0.13444798415E+02 0.14989637762E+02 0.17279231403E+02 0.20294194868E+02 0.26494589513E+02
 0.38503706808E+02 0.55685657130E+02 0.74217871858E+02 0.88600228734E+02 0.44750144790E+02
 0.42439902511E+02 0.36486284823E+02 0.29270289234E+02 0.23242363363E+02 0.19535698079E+02
 0.17279231403E+02 0.15415179178E+02 0.14117891570E+02 0.13481461034E+02 0.13444798415E+02
 0.13858134738E+02 0.14538652419E+02 0.15299811546E+02 0.15972387825E+02 0.16426771524E+02
 0.16586371642E+02 0.16426771524E+02 0.15972387825E+02 0.15299811546E+02 0.14538652419E+02
 0.13858134738E+02 0.13444798415E+02 0.13481461034E+02 0.14117891570E+02 0.15415179178E+02
 0.17279231403E+02 0.19535698079E+02 0.23242363363E+02 0.29270289234E+02 0.36486284823E+02
 0.42439902511E+02 0.23233414501E+02 0.22593009828E+02 0.21013373807E+02 0.19232156606E+02
 0.17709489347E+02 0.16264001289E+02 0.14989637762E+02 0.14117891570E+02 0.13808535233E+02
 0.14117891570E+02 0.14989637762E+02 0.16264001289E+02 0.17709489347E+02 0.19232156606E+02
 0.21013373807E+02 0.22593009828E+02 0.23233414501E+02 0.22593009828E+02 0.21013373807E+02
 0.19232156606E+02 0.17709489347E+02 0.16264001289E+02 0.14989637762E+02 0.14117891570E+02
 0.13808535233E+02 0.14117891570E+02 0.14989637762E+02 0.16264001289E+02 0.17709489347E+02
 0.19232156606E+02 0.21013373807E+02 0.22593009828E+02 0.16586371642E+02 0.16426771524E+02
 0.15972387825E+02 0.15299811546E+02 0.14538652419E+02 0.13858134738E+02 0.13444798415E+02
 0.13481461034E+02 0.14117891570E+02 0.15415179178E+02 0.17279231403E+02 0.19535698079E+02
 0.23242363363E+02 0.29270289234E+02 0.36486284823E+02 0.42439902511E+02 0.44750144790E+02
 0.42439902511E+02 0.36486284823E+02 0.29270289234E+02 0.23242363363E+02 0.19535698079E+02
 0.17279231403E+02 0.15415179178E+02 0.14117891570E+02 0.13481461034E+02 0.13444798415E+02
 0.13858134738E+02 0.14538652419E+02 0.15299811546E+02 0.15972387825E+02 0.16426771524E+02
 0.13068813049E+02 0.13004355993E+02 0.12824527313E+02 0.12579100082E+02 0.12364787559E+02
 0.12319530195E+02 0.12613773900E+02 0.13444798415E+02 0.14989637762E+02 0.17279231403E+02
 0.20294194868E+02 0.26494589513E+02 0.38503706808E+02 0.55685657130E+02 0.74217871858E+02
 0.88600228734E+02 0.94028536567E+02 0.88600228734E+02 0.74217871858E+02 0.55685657130E+02
 0.38503706808E+02 0.26494589513E+02 0.20294194868E+02 0.17279231403E+02 0.14989637762E+02
 0.13444798415E+02 0.12613773900E+02 0.12319530195E+02 0.12364787559E+02 0.12579100082E+02
 0.12824527313E+02 0.13004355993E+02 0.10779124109E+02 0.10788373000E+02 0.10813869710E+02
 0.10873801742E+02 0.11043667836E+02 0.11461098447E+02 0.12319530195E+02 0.13858134738E+02
 0.16264001289E+02 0.19535698079E+02 0.26494589513E+02 0.42583935848E+02 0.69725975868E+02
 0.10486357683E+03 0.14056161686E+03 0.16736370906E+03 0.17733209031E+03 0.16736370906E+03
 0.14056161686E+03 0.10486357683E+03 0.69725975868E+02 0.42583935848E+02 0.26494589513E+02
 0.19535698079E+02 0.16264001289E+02 0.13858134738E+02 0.12319530195E+02 0.11461098447E+02
 0.11043667836E+02 0.10873801742E+02 0.10813869710E+02 0.10788373000E+02 0.94437242078E+01
 0.94982033913E+01 0.96462991750E+01 0.98864417967E+01 0.10296811218E+02 0.11043667836E+02
 0.12364787559E+02 0.14538652419E+02 0.17709489347E+02 0.23242363363E+02 0.38503706808E+02
 0.69725975868E+02 0.11754194666E+03 0.17596420984E+03 0.23338963621E+03 0.27575357740E+03
 0.29139162160E+03 0.27575357740E+03 0.23338963621E+03 0.17596420984E+03 0.11754194666E+03
 0.69725975868E+02 0.38503706808E+02 0.23242363363E+02 0.17709489347E+02 0.14538652419E+02
 0.12364787559E+02 0.11043667836E+02 0.10296811218E+02 0.98864417967E+01 0.96462991750E+01
 0.94982033913E+01 0.87064475094E+01 0.87851114999E+01 0.89964592324E+01 0.93308386211E+01
 0.98864417967E+01 0.10873801742E+02 0.12579100082E+02 0.15299811546E+02 0.19232156606E+02
 0.29270289234E+02 0.55685657130E+02 0.10486357683E+03 0.17596420984E+03 0.26004063034E+03
 0.34124431836E+03 0.40063879159E+03 0.42248961516E+03 0.40063879159E+03 0.34124431836E+03
 0.26004063034E+03 0.17596420984E+03 0.10486357683E+03 0.55685657130E+02 0.29270289234E+02
 0.19232156606E+02 0.15299811546E+02 0.12579100082E+02 0.10873801742E+02 0.98864417967E+01
 0.93308386211E+01 0.89964592324E+01 0.87851114999E+01 0.82728315061E+01 0.83649825416E+01
 0.86101852651E+01 0.89964592324E+01 0.96462991750E+01 0.10813869710E+02 0.12824527313E+02
 0.15972387825E+02 0.21013373807E+02 0.36486284823E+02 0.74217871858E+02 0.14056161686E+03
 0.23338963621E+03 0.34124431836E+03 0.44453142620E+03 0.51981431369E+03 0.54747961465E+03
 0.51981431369E+03 0.44453142620E+03 0.34124431836E+03 0.23338963621E+03 0.14056161686E+03
 0.74217871858E+02 0.36486284823E+02 0.21013373807E+02 0.15972387825E+02 0.12824527313E+02
 0.10813869710E+02 0.96462991750E+01 0.89964592324E+01 0.86101852651E+01 0.83649825416E+01
 0.79968691782E+01 0.80978368654E+01 0.83649825416E+01 0.87851114999E+01 0.94982033913E+01
 0.10788373000E+02 0.13004355993E+02 0.16426771524E+02 0.22593009828E+02 0.42439902511E+02
 0.88600228734E+02 0.16736370906E+03 0.27575357740E+03 0.40063879159E+03 0.51981431369E+03
 0.60658560026E+03 0.63846782365E+03 0.60658560026E+03 0.51981431369E+03 0.40063879159E+03
 0.27575357740E+03 0.16736370906E+03 0.88600228734E+02 0.42439902511E+02 0.22593009828E+02
 0.16426771524E+02 0.13004355993E+02 0.10788373000E+02 0.94982033913E+01 0.87851114999E+01
 0.83649825416E+01 0.80978368654E+01 0.78923939346E+01 0.79968691782E+01 0.82728315061E+01
 0.87064475094E+01 0.94437242078E+01 0.10779124109E+02 0.13068813049E+02 0.16586371642E+02
 0.23233414501E+02 0.44750144790E+02 0.94028536567E+02 0.17733209031E+03 0.29139162160E+03
 0.42248961516E+03 0.54747961465E+03 0.63846782365E+03 0.67190057604E+03 0.63846782365E+03
 0.54747961465E+03 0.42248961516E+03 0.29139162160E+03 0.17733209031E+03 0.94028536567E+02
 0.44750144790E+02 0.23233414501E+02 0.16586371642E+02 0.13068813049E+02 0.10779124109E+02
 0.94437242078E+01 0.87064475094E+01 0.82728315061E+01 0.79968691782E+01 0.79968691782E+01
 0.80978368654E+01 0.83649825416E+01 0.87851114999E+01 0.94982033913E+01 0.10788373000E+02
 0.13004355993E+02 0.16426771524E+02 0.22593009828E+02 0.42439902511E+02 0.88600228734E+02
 0.16736370906E+03 0.27575357740E+03 0.40063879159E+03 0.51981431369E+03 0.60658560026E+03
 0.63846782365E+03 0.60658560026E+03 0.51981431369E+03 0.40063879159E+03 0.27575357740E+03
 0.16736370906E+03 0.88600228734E+02 0.42439902511E+02 0.22593009828E+02 0.16426771524E+02
 0.13004355993E+02 0.10788373000E+02 0.94982033913E+01 0.87851114999E+01 0.83649825416E+01
 0.80978368654E+01 0.82728315061E+01 0.83649825416E+01 0.86101852651E+01 0.89964592324E+01
 0.96462991750E+01 0.10813869710E+02 0.12824527313E+02 0.15972387825E+02 0.21013373807E+02
 0.36486284823E+02 0.74217871858E+02 0.14056161686E+03 0.23338963621E+03 0.34124431836E+03
 0.44453142620E+03 0.51981431369E+03 0.54747961465E+03 0.51981431369E+03 0.44453142620E+03
 0.34124431836E+03 0.23338963621E+03 0.14056161686E+03 0.74217871858E+02 0.36486284823E+02
 0.21013373807E+02 0.15972387825E+02 0.12824527313E+02 0.10813869710E+02 0.96462991750E+01
 0.89964592324E+01 0.86101852651E+01 0.83649825416E+01 0.87064475094E+01 0.87851114999E+01
 0.89964592324E+01 0.93308386211E+01 0.98864417967E+01 0.10873801742E+02 0.12579100082E+02
 0.15299811546E+02 0.19232156606E+02 0.29270289234E+02 0.55685657130E+02 0.10486357683E+03
 0.17596420984E+03 0.26004063034E+03 0.34124431836E+03 0.40063879159E+03 0.42248961516E+03
 0.40063879159E+03 0.34124431836E+03 0.26004063034E+03 0.17596420984E+03 0.10486357683E+03
 0.55685657130E+02 0.29270289234E+02 0.19232156606E+02 0.15299811546E+02 0.12579100082E+02
 0.10873801742E+02 0.98864417967E+01 0.93308386211E+01 0.89964592324E+01 0.87851114999E+01
 0.94437242078E+01 0.94982033913E+01 0.96462991750E+01 0.98864417967E+01 0.10296811218E+02
 0.11043667836E+02 0.12364787559E+02 0.14538652419E+02 0.17709489347E+02 0.23242363363E+02
 0.38503706808E+02 0.69725975868E+02 0.11754194666E+03 0.17596420984E+03 0.23338963621E+03
 0.27575357740E+03 0.29139162160E+03 0.27575357740E+03 0.23338963621E+03 0.17596420984E+03
 0.11754194666E+03 0.69725975868E+02 0.38503706808E+02 0.23242363363E+02 0.17709489347E+02
 0.14538652419E+02 0.12364787559E+02 0.11043667836E+02 0.10296811218E+02 0.98864417967E+01
 0.96462991750E+01 0.94982033913E+01 0.10779124109E+02 0.10788373000E+02 0.10813869710E+02
 0.10873801742E+02 0.11043667836E+02 0.11461098447E+02 0.12319530195E+02 0.13858134738E+02
 0.16264001289E+02 0.19535698079E+02 0.26494589513E+02 0.42583935848E+02 0.69725975868E+02
 0.10486357683E+03 0.14056161686E+03 0.16736370906E+03 0.17733209031E+03 0.16736370906E+03
 0.14056161686E+03 0.10486357683E+03 0.69725975868E+02 0.42583935848E+02 0.26494589513E+02
 0.19535698079E+02 0.16264001289E+02 0.13858134738E+02 0.12319530195E+02 0.11461098447E+02
 0.11043667836E+02 0.10873801742E+02 0.10813869710E+02 0.10788373000E+02 0.13068813049E+02
 0.13004355993E+02 0.12824527313E+02 0.12579100082E+02 0.12364787559E+02 0.12319530195E+02
 0.12613773900E+02 0.13444798415E+02 0.14989637762E+02 0.17279231403E+02 0.20294194868E+02
 0.26494589513E+02 0.38503706808E+02 0.55685657130E+02 0.74217871858E+02 0.88600228734E+02
 0.94028536567E+02 0.88600228734E+02 0.74217871858E+02 0.55685657130E+02 0.38503706808E+02
 0.26494589513E+02 0.20294194868E+02 0.17279231403E+02 0.14989637762E+02 0.13444798415E+02
 0.12613773900E+02 0.12319530195E+02 0.12364787559E+02 0.12579100082E+02 0.12824527313E+02
 0.13004355993E+02 0.16586371642E+02 0.16426771524E+02 0.15972387825E+02 0.15299811546E+02
 0.14538652419E+02 0.13858134738E+02 0.13444798415E+02 0.13481461034E+02 0.14117891570E+02
 0.15415179178E+02 0.17279231403E+02 0.19535698079E+02 0.23242363363E+02 0.29270289234E+02
 0.36486284823E+02 0.42439902511E+02 0.44750144790E+02 0.42439902511E+02 0.36486284823E+02
 0.29270289234E+02 0.23242363363E+02 0.19535698079E+02 0.17279231403E+02 0.15415179178E+02
 0.14117891570E+02 0.13481461034E+02 0.13444798415E+02 0.13858134738E+02 0.14538652419E+02
 0.15299811546E+02 0.15972387825E+02 0.16426771524E+02 0.23233414501E+02 0.22593009828E+02
 0.21013373807E+02 0.19232156606E+02 0.17709489347E+02 0.16264001289E+02 0.14989637762E+02
 0.14117891570E+02 0.13808535233E+02 0.14117891570E+02 0.14989637762E+02 0.16264001289E+02
 0.17709489347E+02 0.19232156606E+02 0.21013373807E+02 0.22593009828E+02 0.23233414501E+02
 0.22593009828E+02 0.21013373807E+02 0.19232156606E+02 0.17709489347E+02 0.16264001289E+02
 0.14989637762E+02 0.14117891570E+02 0.13808535233E+02 0.14117891570E+02 0.14989637762E+02
 0.16264001289E+02 0.17709489347E+02 0.19232156606E+02 0.21013373807E+02 0.22593009828E+02
 0.44750144790E+02 0.42439902511E+02 0.36486284823E+02 0.29270289234E+02 0.23242363363E+02
 0.19535698079E+02 0.17279231403E+02 0.15415179178E+02 0.14117891570E+02 0.13481461034E+02
 0.13444798415E+02 0.13858134738E+02 0.14538652419E+02 0.15299811546E+02 0.15972387825E+02
 0.16426771524E+02 0.16586371642E+02 0.16426771524E+02 0.15972387825E+02 0.15299811546E+02
 0.14538652419E+02 0.13858134738E+02 0.13444798415E+02 0.13481461034E+02 0.14117891570E+02
 0.15415179178E+02 0.17279231403E+02 0.19535698079E+02 0.23242363363E+02 0.29270289234E+02
 0.36486284823E+02 0.42439902511E+02 0.94028536567E+02 0.88600228734E+02 0.74217871858E+02
 0.55685657130E+02 0.38503706808E+02 0.26494589513E+02 0.20294194868E+02 0.17279231403E+02
 0.14989637762E+02 0.13444798415E+02 0.12613773900E+02 0.12319530195E+02 0.12364787559E+02
 0.12579100082E+02 0.12824527313E+02 0.13004355993E+02 0.13068813049E+02 0.13004355993E+02
 0.12824527313E+02 0.12579100082E+02 0.12364787559E+02 0.12319530195E+02 0.12613773900E+02
 0.13444798415E+02 0.14989637762E+02 0.17279231403E+02 0.20294194868E+02 0.26494589513E+02
 0.38503706808E+02 0.55685657130E+02 0.74217871858E+02 0.88600228734E+02 0.17733209031E+03
 0.16736370906E+03 0.14056161686E+03 0.10486357683E+03 0.69725975868E+02 0.42583935848E+02
 0.26494589513E+02 0.19535698079E+02 0.16264001289E+02 0.13858134738E+02 0.12319530195E+02
 0.11461098447E+02 0.11043667836E+02 0.10873801742E+02 0.10813869710E+02 0.10788373000E+02
 0.10779124109E+02 0.10788373000E+02 0.10813869710E+02 0.10873801742E+02 0.11043667836E+02
 0.11461098447E+02 0.12319530195E+02 0.13858134738E+02 0.16264001289E+02 0.19535698079E+02
 0.26494589513E+02 0.42583935848E+02 0.69725975868E+02 0.10486357683E+03 0.14056161686E+03
 0.16736370906E+03 0.29139162160E+03 0.27575357740E+03 0.23338963621E+03 0.17596420984E+03
 0.11754194666E+03 0.69725975868E+02 0.38503706808E+02 0.23242363363E+02 0.17709489347E+02
 0.14538652419E+02 0.12364787559E+02 0.11043667836E+02 0.10296811218E+02 0.98864417967E+01
 0.96462991750E+01 0.94982033913E+01 0.94437242078E+01 0.94982033913E+01 0.96462991750E+01
 0.98864417967E+01 0.10296811218E+02 0.11043667836E+02 0.12364787559E+02 0.14538652419E+02
 0.17709489347E+02 0.23242363363E+02 0.38503706808E+02 0.69725975868E+02 0.11754194666E+03
 0.17596420984E+03 0.23338963621E+03 0.27575357740E+03 0.42248961516E+03 0.40063879159E+03
 0.34124431836E+03 0.26004063034E+03 0.17596420984E+03 0.10486357683E+03 0.55685657130E+02
 0.29270289234E+02 0.19232156606E+02 0.15299811546E+02 0.12579100082E+02 0.10873801742E+02
 0.98864417967E+01 0.93308386211E+01 0.89964592324E+01 0.87851114999E+01 0.87064475094E+01
 0.87851114999E+01 0.89964592324E+01 0.93308386211E+01 0.98864417967E+01 0.10873801742E+02
 0.12579100082E+02 0.15299811546E+02 0.19232156606E+02 0.29270289234E+02 0.55685657130E+02
 0.10486357683E+03 0.17596420984E+03 0.26004063034E+03 0.34124431836E+03 0.40063879159E+03
 0.54747961465E+03 0.51981431369E+03 0.44453142620E+03 0.34124431836E+03 0.23338963621E+03
 0.14056161686E+03 0.74217871858E+02 0.36486284823E+02 0.21013373807E+02 0.15972387825E+02
 0.12824527313E+02 0.10813869710E+02 0.96462991750E+01 0.89964592324E+01 0.86101852651E+01
 0.83649825416E+01 0.82728315061E+01 0.83649825416E+01 0.86101852651E+01 0.89964592324E+01
 0.96462991750E+01 0.10813869710E+02 0.12824527313E+02 0.15972387825E+02 0.21013373807E+02
 0.36486284823E+02 0.74217871858E+02 0.14056161686E+03 0.23338963621E+03 0.34124431836E+03
 0.44453142620E+03 0.51981431369E+03 0.63846782365E+03 0.60658560026E+03 0.51981431369E+03
 0.40063879159E+03 0.27575357740E+03 0.16736370906E+03 0.88600228734E+02 0.42439902511E+02
 0.22593009828E+02 0.16426771524E+02 0.13004355993E+02 0.10788373000E+02 0.94982033913E+01
 0.87851114999E+01 0.83649825416E+01 0.80978368654E+01 0.79968691782E+01 0.80978368654E+01
 0.83649825416E+01 0.87851114999E+01 0.94982033913E+01 0.10788373000E+02 0.13004355993E+02
 0.16426771524E+02 0.22593009828E+02 0.42439902511E+02 0.88600228734E+02 0.16736370906E+03
 0.27575357740E+03 0.40063879159E+03 0.51981431369E+03 0.60658560026E+03 0.63846782365E+03
 0.60658560026E+03 0.51981431369E+03 0.40063879159E+03 0.27575357740E+03 0.16736370906E+03
 0.88600228734E+02 0.42439902511E+02 0.22593009828E+02 0.16426771524E+02 0.13004355993E+02
 0.10788373000E+02 0.94982033913E+01 0.87851114999E+01 0.83649825416E+01 0.80978368654E+01
 0.79968691782E+01 0.80978368654E+01 0.83649825416E+01 0.87851114999E+01 0.94982033913E+01
 0.10788373000E+02 0.13004355993E+02 0.16426771524E+02 0.22593009828E+02 0.42439902511E+02
 0.88600228734E+02 0.16736370906E+03 0.27575357740E+03 0.40063879159E+03 0.51981431369E+03
 0.60658560026E+03 0.60658560026E+03 0.57618232566E+03 0.49343648530E+03 0.37981900279E+03
 0.26088060437E+03 0.15791955053E+03 0.83494595022E+02 0.40295567195E+02 0.22010164234E+02
 0.16269039601E+02 0.12940866877E+02 0.10796904634E+02 0.95507155202E+01 0.88611064618E+01
 0.84540513499E+01 0.81954232126E+01 0.80978368654E+01 0.81954232126E+01 0.84540513499E+01
 0.88611064618E+01 0.95507155202E+01 0.10796904634E+02 0.12940866877E+02 0.16269039601E+02
 0.22010164234E+02 0.40295567195E+02 0.83494595022E+02 0.15791955053E+03 0.26088060437E+03
 0.37981900279E+03 0.49343648530E+03 0.57618232566E+03 0.51981431369E+03 0.49343648530E+03
 0.42166543271E+03 0.32324442429E+03 0.22061258139E+03 0.13255120060E+03 0.69987770868E+02
 0.34782875388E+02 0.20573376845E+02 0.15820899362E+02 0.12764134156E+02 0.10820684634E+02
 0.96937201431E+01 0.90655909101E+01 0.86914284882E+01 0.84540513499E+01 0.83649825416E+01
 0.84540513499E+01 0.86914284882E+01 0.90655909101E+01 0.96937201431E+01 0.10820684634E+02
 0.12764134156E+02 0.15820899362E+02 0.20573376845E+02 0.34782875388E+02 0.69987770868E+02
 0.13255120060E+03 0.22061258139E+03 0.32324442429E+03 0.42166543271E+03 0.49343648530E+03
 0.40063879159E+03 0.37981900279E+03 0.32324442429E+03 0.24596348193E+03 0.16610609386E+03
 0.98837653594E+02 0.52643510191E+02 0.28135837599E+02 0.18944665654E+02 0.15159710607E+02
 0.12523439057E+02 0.10877631092E+02 0.99257567762E+01 0.93892377605E+01 0.90655909101E+01
 0.88611064618E+01 0.87851114999E+01 0.88611064618E+01 0.90655909101E+01 0.93892377605E+01
 0.99257567762E+01 0.10877631092E+02 0.12523439057E+02 0.15159710607E+02 0.18944665654E+02
 0.28135837599E+02 0.52643510191E+02 0.98837653594E+02 0.16610609386E+03 0.24596348193E+03
 0.32324442429E+03 0.37981900279E+03 0.27575357740E+03 0.26088060437E+03 0.22061258139E+03
 0.16610609386E+03 0.11081116386E+03 0.65791048837E+02 0.36662418853E+02 0.22625258747E+02
 0.17497603881E+02 0.14413853069E+02 0.12312759085E+02 0.11040143161E+02 0.10321364638E+02
 0.99257567762E+01 0.96937201431E+01 0.95507155202E+01 0.94982033913E+01 0.95507155202E+01
 0.96937201431E+01 0.99257567762E+01 0.10321364638E+02 0.11040143161E+02 0.12312759085E+02
 0.14413853069E+02 0.17497603881E+02 0.22625258747E+02 0.36662418853E+02 0.65791048837E+02
 0.11081116386E+03 0.16610609386E+03 0.22061258139E+03 0.26088060437E+03 0.16736370906E+03
 0.15791955053E+03 0.13255120060E+03 0.98837653594E+02 0.65791048837E+02 0.40449170219E+02
 0.25603102153E+02 0.19236009472E+02 0.16079254070E+02 0.13748378224E+02 0.12265110544E+02
 0.11440301787E+02 0.11040143161E+02 0.10877631092E+02 0.10820684634E+02 0.10796904634E+02
 0.10788373000E+02 0.10796904634E+02 0.10820684634E+02 0.10877631092E+02 0.11040143161E+02
 0.11440301787E+02 0.12265110544E+02 0.13748378224E+02 0.16079254070E+02 0.19236009472E+02
 0.25603102153E+02 0.40449170219E+02 0.65791048837E+02 0.98837653594E+02 0.13255120060E+03
 0.15791955053E+03 0.88600228734E+02 0.83494595022E+02 0.69987770868E+02 0.52643510191E+02
 0.36662418853E+02 0.25603102153E+02 0.19940687051E+02 0.17059777421E+02 0.14835443148E+02
 0.13343436894E+02 0.12544888639E+02 0.12265110544E+02 0.12312759085E+02 0.12523439057E+02
 0.12764134156E+02 0.12940866877E+02 0.13004355993E+02 0.12940866877E+02 0.12764134156E+02
 0.12523439057E+02 0.12312759085E+02 0.12265110544E+02 0.12544888639E+02 0.13343436894E+02
 0.14835443148E+02 0.17059777421E+02 0.19940687051E+02 0.25603102153E+02 0.36662418853E+02
 0.52643510191E+02 0.69987770868E+02 0.83494595022E+02 0.42439902511E+02 0.40295567195E+02
 0.34782875388E+02 0.28135837599E+02 0.22625258747E+02 0.19236009472E+02 0.17059777421E+02
 0.15244155068E+02 0.13987762451E+02 0.13374915691E+02 0.13343436894E+02 0.13748378224E+02
 0.14413853069E+02 0.15159710607E+02 0.15820899362E+02 0.16269039601E+02 0.16426771524E+02
 0.16269039601E+02 0.15820899362E+02 0.15159710607E+02 0.14413853069E+02 0.13748378224E+02
 0.13343436894E+02 0.13374915691E+02 0.13987762451E+02 0.15244155068E+02 0.17059777421E+02
 0.19236009472E+02 0.22625258747E+02 0.28135837599E+02 0.34782875388E+02 0.40295567195E+02
 0.22593009828E+02 0.22010164234E+02 0.20573376845E+02 0.18944665654E+02 0.17497603881E+02
 0.16079254070E+02 0.14835443148E+02 0.13987762451E+02 0.13687524194E+02 0.13987762451E+02
 0.14835443148E+02 0.16079254070E+02 0.17497603881E+02 0.18944665654E+02 0.20573376845E+02
 0.22010164234E+02 0.22593009828E+02 0.22010164234E+02 0.20573376845E+02 0.18944665654E+02
 0.17497603881E+02 0.16079254070E+02 0.14835443148E+02 0.13987762451E+02 0.13687524194E+02
 0.13987762451E+02 0.14835443148E+02 0.16079254070E+02 0.17497603881E+02 0.18944665654E+02
 0.20573376845E+02 0.22010164234E+02 0.16426771524E+02 0.16269039601E+02 0.15820899362E+02
 0.15159710607E+02 0.14413853069E+02 0.13748378224E+02 0.13343436894E+02 0.13374915691E+02
 0.13987762451E+02 0.15244155068E+02 0.17059777421E+02 0.19236009472E+02 0.22625258747E+02
 0.28135837599E+02 0.34782875388E+02 0.40295567195E+02 0.42439902511E+02 0.40295567195E+02
 0.34782875388E+02 0.28135837599E+02 0.22625258747E+02 0.19236009472E+02 0.17059777421E+02
 0.15244155068E+02 0.13987762451E+02 0.13374915691E+02 0.13343436894E+02 0.13748378224E+02
 0.14413853069E+02 0.15159710607E+02 0.15820899362E+02 0.16269039601E+02 0.13004355993E+02
 0.12940866877E+02 0.12764134156E+02 0.12523439057E+02 0.12312759085E+02 0.12265110544E+02
 0.12544888639E+02 0.13343436894E+02 0.14835443148E+02 0.17059777421E+02 0.19940687051E+02
 0.25603102153E+02 0.36662418853E+02 0.52643510191E+02 0.69987770868E+02 0.83494595022E+02
 0.88600228734E+02 0.83494595022E+02 0.69987770868E+02 0.52643510191E+02 0.36662418853E+02
 0.25603102153E+02 0.19940687051E+02 0.17059777421E+02 0.14835443148E+02 0.13343436894E+02
 0.12544888639E+02 0.12265110544E+02 0.12312759085E+02 0.12523439057E+02 0.12764134156E+02
 0.12940866877E+02 0.10788373000E+02 0.10796904634E+02 0.10820684634E+02 0.10877631092E+02
 0.11040143161E+02 0.11440301787E+02 0.12265110544E+02 0.13748378224E+02 0.16079254070E+02
 0.19236009472E+02 0.25603102153E+02 0.40449170219E+02 0.65791048837E+02 0.98837653594E+02
 0.13255120060E+03 0.15791955053E+03 0.16736370906E+03 0.15791955053E+03 0.13255120060E+03
 0.98837653594E+02 0.65791048837E+02 0.40449170219E+02 0.25603102153E+02 0.19236009472E+02
 0.16079254070E+02 0.13748378224E+02 0.12265110544E+02 0.11440301787E+02 0.11040143161E+02
 0.10877631092E+02 0.10820684634E+02 0.10796904634E+02 0.94982033913E+01 0.95507155202E+01
 0.96937201431E+01 0.99257567762E+01 0.10321364638E+02 0.11040143161E+02 0.12312759085E+02
 0.14413853069E+02 0.17497603881E+02 0.22625258747E+02 0.36662418853E+02 0.65791048837E+02
 0.11081116386E+03 0.16610609386E+03 0.22061258139E+03 0.26088060437E+03 0.27575357740E+03
 0.26088060437E+03 0.22061258139E+03 0.16610609386E+03 0.11081116386E+03 0.65791048837E+02
 0.36662418853E+02 0.22625258747E+02 0.17497603881E+02 0.14413853069E+02 0.12312759085E+02
 0.11040143161E+02 0.10321364638E+02 0.99257567762E+01 0.96937201431E+01 0.95507155202E+01
 0.87851114999E+01 0.88611064618E+01 0.90655909101E+01 0.93892377605E+01 0.99257567762E+01
 0.10877631092E+02 0.12523439057E+02 0.15159710607E+02 0.18944665654E+02 0.28135837599E+02
 0.52643510191E+02 0.98837653594E+02 0.16610609386E+03 0.24596348193E+03 0.32324442429E+03
 0.37981900279E+03 0.40063879159E+03 0.37981900279E+03 0.32324442429E+03 0.24596348193E+03
 0.16610609386E+03 0.98837653594E+02 0.52643510191E+02 0.28135837599E+02 0.18944665654E+02
 0.15159710607E+02 0.12523439057E+02 0.10877631092E+02 0.99257567762E+01 0.93892377605E+01
 0.90655909101E+01 0.88611064618E+01 0.83649825416E+01 0.84540513499E+01 0.86914284882E+01
 0.90655909101E+01 0.96937201431E+01 0.10820684634E+02 0.12764134156E+02 0.15820899362E+02
 0.20573376845E+02 0.34782875388E+02 0.69987770868E+02 0.13255120060E+03 0.22061258139E+03
 0.32324442429E+03 0.42166543271E+03 0.49343648530E+03 0.51981431369E+03 0.49343648530E+03
 0.42166543271E+03 0.32324442429E+03 0.22061258139E+03 0.13255120060E+03 0.69987770868E+02
 0.34782875388E+02 0.20573376845E+02 0.15820899362E+02 0.12764134156E+02 0.10820684634E+02
 0.96937201431E+01 0.90655909101E+01 0.86914284882E+01 0.84540513499E+01 0.80978368654E+01
 0.81954232126E+01 0.84540513499E+01 0.88611064618E+01 0.95507155202E+01 0.10796904634E+02
 0.12940866877E+02 0.16269039601E+02 0.22010164234E+02 0.40295567195E+02 0.83494595022E+02
 0.15791955053E+03 0.26088060437E+03 0.37981900279E+03 0.49343648530E+03 0.57618232566E+03
 0.60658560026E+03 0.57618232566E+03 0.49343648530E+03 0.37981900279E+03 0.26088060437E+03
 0.15791955053E+03 0.83494595022E+02 0.40295567195E+02 0.22010164234E+02 0.16269039601E+02
 0.12940866877E+02 0.10796904634E+02 0.95507155202E+01 0.88611064618E+01 0.84540513499E+01
 0.81954232126E+01 0.79968691782E+01 0.80978368654E+01 0.83649825416E+01 0.87851114999E+01
 0.94982033913E+01 0.10788373000E+02 0.13004355993E+02 0.16426771524E+02 0.22593009828E+02
 0.42439902511E+02 0.88600228734E+02 0.16736370906E+03 0.27575357740E+03 0.40063879159E+03
 0.51981431369E+03 0.60658560026E+03 0.63846782365E+03 0.60658560026E+03 0.51981431369E+03
 0.40063879159E+03 0.27575357740E+03 0.16736370906E+03 0.88600228734E+02 0.42439902511E+02
 0.22593009828E+02 0.16426771524E+02 0.13004355993E+02 0.10788373000E+02 0.94982033913E+01
 0.87851114999E+01 0.83649825416E+01 0.80978368654E+01 0.80978368654E+01 0.81954232126E+01
 0.84540513499E+01 0.88611064618E+01 0.95507155202E+01 0.10796904634E+02 0.12940866877E+02
 0.16269039601E+02 0.22010164234E+02 0.40295567195E+02 0.83494595022E+02 0.15791955053E+03
 0.26088060437E+03 0.37981900279E+03 0.49343648530E+03 0.57618232566E+03 0.60658560026E+03
 0.57618232566E+03 0.49343648530E+03 0.37981900279E+03 0.26088060437E+03 0.15791955053E+03
 0.83494595022E+02 0.40295567195E+02 0.22010164234E+02 0.16269039601E+02 0.12940866877E+02
 0.10796904634E+02 0.95507155202E+01 0.88611064618E+01 0.84540513499E+01 0.81954232126E+01
 0.83649825416E+01 0.84540513499E+01 0.86914284882E+01 0.90655909101E+01 0.96937201431E+01
 0.10820684634E+02 0.12764134156E+02 0.15820899362E+02 0.20573376845E+02 0.34782875388E+02
 0.69987770868E+02 0.13255120060E+03 0.22061258139E+03 0.32324442429E+03 0.42166543271E+03
 0.49343648530E+03 0.51981431369E+03 0.49343648530E+03 0.42166543271E+03 0.32324442429E+03
 0.22061258139E+03 0.13255120060E+03 0.69987770868E+02 0.34782875388E+02 0.20573376845E+02