    4    4    1    1
  0.9606015E+01  0.3374435E-09  0.3374435E-09  0.3374435E-09  0.5000000E-15
  1.000000000000000E-004
  CAR 
 unknown system                          
     44     35     30
 
  0.0000000E+00  0.0000000E+00  0.0000000E+00  0.1371742E-02
    1       -0.599675   1.000000
    2        4.176966   1.000000
    3        4.176966   1.000000
    4        4.176966   1.000000
    5        4.784591   1.000000
    6        4.784591   1.000000
    7        4.784591   1.000000
    8        6.700592   1.000000
    9        6.700592   1.000000
   10        6.700592   1.000000
   11        7.839378   1.000000
   12        7.839378   1.000000
   13        8.594910   1.000000
   14        8.594910   1.000000
   15        8.594910   1.000000
   16        8.809754   1.000000
   17        8.809754   1.000000
   18        8.809754   1.000000
   19        8.809754   1.000000
   20        8.809754   1.000000
   21        8.809754   1.000000
   22       11.797484  -0.000000
   23       11.797484  -0.000000
   24       11.797484  -0.000000
   25       19.132049   0.000000
   26       19.132049   0.000000
   27       19.132049   0.000000
   28       25.228978   0.000000
   29       25.228978   0.000000
   30       25.228978   0.000000
 
  0.1111111E+00  0.0000000E+00  0.0000000E+00  0.8230453E-02
    1       -0.425262   1.000000
    2        4.185285   1.000000
    3        4.266279   1.000000
    4        4.266279   1.000000
    5        4.837980   1.000000
    6        4.842321   1.000000
    7        4.842321   1.000000
    8        6.638424   1.000000
    9        6.749200   1.000000
   10        6.749200   1.000000
   11        7.782615   1.000000
   12        7.861589   1.000000
   13        8.428211   1.000000
   14        8.428211   1.000000
   15        8.521091   1.000000
   16        8.521091   1.000000
   17        8.571481   1.000000
   18        8.723836   1.000000
   19        8.723836   1.000000
   20        8.809890   1.000000
   21        8.809890   1.000000
   22       10.936963  -0.005802
   23       12.325937  -0.000000
   24       12.325937  -0.000000
   25       19.172919   0.000000
   26       19.172919   0.000000
   27       20.296364   0.000000
   28       24.234115   0.000000
   29       24.234115   0.000000
   30       24.649521   0.000000
 
  0.2222222E+00  0.0000000E+00  0.0000000E+00  0.8230453E-02
    1        0.088967   1.000000
    2        4.151245   1.000000
    3        4.511345   1.000000
    4        4.511345   1.000000
    5        4.993107   1.000000
    6        5.016622   1.000000
    7        5.016622   1.000000
    8        6.459626   1.000000
    9        6.891373   1.000000
   10        6.891373   1.000000
   11        7.624501   1.000000
   12        7.684939   1.000000
   13        7.684939   1.000000
   14        7.925330   1.000000
   15        8.313938   1.000000
   16        8.313938   1.000000
   17        8.487569   1.000000
   18        8.487569   1.000000
   19        8.504024   1.000000
   20        8.810211   1.000000
   21        8.810211   1.000000
   22        9.301245   1.000000
   23       13.508130  -0.000000
   24       13.508130  -0.000000
   25       19.302142   0.000000
   26       19.302142   0.000000
   27       22.357020   0.000000
   28       22.357020   0.000000
   29       22.881510   0.000000
   30       23.435838   0.000000
 
  0.3333333E+00  0.0000000E+00  0.0000000E+00  0.8230453E-02
    1        0.911661   1.000000
    2        3.860943   1.000000
    3        4.835828   1.000000
    4        4.835828   1.000000
    5        5.234654   1.000000
    6        5.310803   1.000000
    7        5.310803   1.000000
    8        6.191288   1.000000
    9        6.932250   1.000000
   10        6.932250   1.000000
   11        7.121530   1.000000
   12        7.121530   1.000000
   13        7.406290   1.000000
   14        7.918783   1.000000
   15        8.023764   1.000000
   16        8.030326   1.000000
   17        8.030326   1.000000
   18        8.153329   1.000000
   19        8.153329   1.000000
   20        8.401415   1.000000
   21        8.810562   1.000000
   22        8.810562   1.000000
   23       14.985570  -0.000000
   24       14.985570  -0.000000
   25       19.529413   0.000000
   26       19.529413   0.000000
   27       20.373579   0.000000
   28       20.373579   0.000000
   29       22.246243   0.000000
   30       22.246243   0.000000
 
  0.4444444E+00  0.0000000E+00  0.0000000E+00  0.8230453E-02
    1        1.967078   1.000000
    2        3.070415   1.000000
    3        5.089387   1.000000
    4        5.089387   1.000000
    5        5.538135   1.000000
    6        5.729142   1.000000
    7        5.729142   1.000000
    8        5.870679   1.000000
    9        6.271190   1.000000
   10        6.271190   1.000000
   11        7.221057   1.000000
   12        7.270879   1.000000
   13        7.426441   1.000000
   14        7.426441   1.000000
   15        7.782523   1.000000
   16        7.782523   1.000000
   17        7.802550   1.000000
   18        7.802550   1.000000
   19        8.145678   1.000000
   20        8.276824   1.000000
   21        8.810787   1.000000
   22        8.810787   1.000000
   23       16.648119   0.000000
   24       16.648119   0.000000
   25       18.453998   0.000000
   26       18.453998   0.000000
   27       19.798817   0.000000
   28       19.798817   0.000000
   29       21.442701   0.000000
   30       21.442701   0.000000
 
  0.1111111E+00  0.1111111E+00  0.0000000E+00  0.1646091E-01
    1       -0.252540   1.000000
    2        4.277772   1.000000
    3        4.277772   1.000000
    4        4.352263   1.000000
    5        4.893836   1.000000
    6        4.893836   1.000000
    7        4.896453   1.000000
    8        6.603550   1.000000
    9        6.771633   1.000000
   10        6.788205   1.000000
   11        7.767755   1.000000
   12        7.850818   1.000000
   13        8.181803   1.000000
   14        8.274972   1.000000
   15        8.274972   1.000000
   16        8.452989   1.000000
   17        8.534110   1.000000
   18        8.534110   1.000000
   19        8.723613   1.000000
   20        8.723613   1.000000
   21        8.754877   1.000000
   22       11.466785  -0.000000
   23       11.466785  -0.000000
   24       12.774904  -0.000000
   25       19.203337   0.000000
   26       20.366803   0.000000
   27       20.366803   0.000000
   28       22.453050   0.000000
   29       24.473962   0.000000
   30       24.473962   0.000000
 
  0.2222222E+00  0.1111111E+00  0.0000000E+00  0.3292181E-01
    1        0.256648   1.000000
    2        4.253110   1.000000
    3        4.532423   1.000000
    4        4.588950   1.000000
    5        5.043371   1.000000
    6        5.058465   1.000000
    7        5.062310   1.000000
    8        6.446270   1.000000
    9        6.899572   1.000000
   10        6.899662   1.000000
   11        7.533664   1.000000
   12        7.568561   1.000000
   13        7.638473   1.000000
   14        7.906444   1.000000
   15        7.917236   1.000000
   16        8.260713   1.000000
   17        8.324452   1.000000
   18        8.470469   1.000000
   19        8.486439   1.000000
   20        8.722870   1.000000
   21        8.725418   1.000000
   22        9.934798   1.000149
   23       12.557265  -0.000000
   24       13.858432  -0.000000
   25       19.219708   0.000000
   26       20.582143   0.000000
   27       20.586446   0.000000
   28       22.578658   0.000000
   29       22.963873   0.000000
   30       23.663358   0.000000
 
  0.3333333E+00  0.1111111E+00  0.0000000E+00  0.3292181E-01
    1        1.070482   1.000000
    2        3.976766   1.000000
    3        4.874217   1.000000
    4        4.908724   1.000000
    5        5.276086   1.000000
    6        5.323315   1.000000
    7        5.346399   1.000000
    8        6.193085   1.000000
    9        6.805295   1.000000
   10        6.885825   1.000000
   11        7.037397   1.000000
   12        7.125124   1.000000
   13        7.367205   1.000000
   14        7.488593   1.000000
   15        7.996390   1.000000
   16        8.040388   1.000000
   17        8.043213   1.000000
   18        8.152093   1.000000
   19        8.287161   1.000000
   20        8.719240   1.000000
   21        8.721667   1.000000
   22        8.832374   1.000000
   23       13.845708  -0.000000
   24       15.275369  -0.000000
   25       18.308965   0.000000
   26       19.944441   0.000000
   27       20.594796   0.000000
   28       20.904713   0.000000
   29       22.514899   0.000000
   30       24.228735   0.000000
 
  0.4444444E+00  0.1111111E+00  0.0000000E+00  0.3292181E-01
    1        2.112821   1.000000
    2        3.200602   1.000000
    3        5.151564   1.000000
    4        5.166158   1.000000
    5        5.568105   1.000000
    6        5.685549   1.000000
    7        5.748195   1.000000
    8        5.886343   1.000000
    9        6.179182   1.000000
   10        6.264925   1.000000
   11        7.021650   1.000000
   12        7.025889   1.000000
   13        7.427248   1.000000
   14        7.582178   1.000000
   15        7.781946   1.000000
   16        7.789129   1.000000
   17        7.808229   1.000000
   18        7.919770   1.000000
   19        8.200043   1.000000
   20        8.403619   1.000000
   21        8.718813   1.000000
   22        8.720127   1.000000
   23       15.245513  -0.000000
   24       16.742625   0.000000
   25       16.901753   0.000000
   26       18.686039   0.000000
   27       20.308707   0.000000
   28       20.854395   0.000000
   29       22.239452   0.000000
   30       23.043535   0.000000
 
  0.2222222E+00  0.2222222E+00  0.0000000E+00  0.1646091E-01
    1        0.750042   1.000000
    2        4.537099   1.000000
    3        4.537099   1.000000
    4        4.802224   1.000000
    5        5.183315   1.000000
    6        5.195010   1.000000
    7        5.195010   1.000000
    8        6.363538   1.000000
    9        6.925746   1.000000
   10        6.973110   1.000000
   11        7.169449   1.000000
   12        7.169449   1.000000
   13        7.223541   1.000000
   14        7.594694   1.000000
   15        7.985000   1.000000
   16        8.106931   1.000000
   17        8.284650   1.000000
   18        8.284650   1.000000
   19        8.483957   1.000000
   20        8.483957   1.000000
   21        8.593403   1.000000
   22       10.927666  -0.006803
   23       10.927666  -0.006803
   24       14.780900  -0.000000
   25       17.976258   0.000000
   26       19.875587   0.000000
   27       23.118012   0.000000
   28       23.118012   0.000000
   29       23.215352   0.000000
   30       23.215352   0.000000
 
  0.3333333E+00  0.2222222E+00  0.0000000E+00  0.3292181E-01
    1        1.535467   1.000000
    2        4.301366   1.000000
    3        4.930034   1.000000
    4        5.100717   1.000000
    5        5.368735   1.000000
    6        5.399657   1.000000
    7        5.447922   1.000000
    8        6.177818   1.000000
    9        6.515777   1.000000
   10        6.738838   1.000000
   11        6.790060   1.000000
   12        6.929939   1.000000
   13        7.159681   1.000000
   14        7.508312   1.000000
   15        7.889871   1.000000
   16        8.019544   1.000000
   17        8.123351   1.000000
   18        8.150063   1.000000
   19        8.180558   1.000000
   20        8.481217   1.000000
   21        8.519248   1.000000
   22        9.629017   1.000000
   23       12.021864  -0.000000
   24       16.074694   0.000000
   25       16.174333   0.000000
   26       20.153844   0.000000
   27       21.230195   0.000000
   28       22.544630   0.000000
   29       24.198437   0.000000
   30       24.232251   0.000000
 
  0.4444444E+00  0.2222222E+00  0.0000000E+00  0.3292181E-01
    1        2.534846   1.000000
    2        3.569783   1.000000
    3        5.286203   1.000000
    4        5.380234   1.000000
    5        5.567898   1.000000
    6        5.653790   1.000000
    7        5.799937   1.000000
    8        5.926255   1.000000
    9        5.971369   1.000000
   10        6.240328   1.000000
   11        6.680348   1.000000
   12        6.811494   1.000000
   13        7.441210   1.000000
   14        7.590997   1.000000
   15        7.728215   1.000000
   16        7.780886   1.000000
   17        7.784696   1.000000
   18        7.848237   1.000000
   19        8.461826   1.000000
   20        8.481187   1.000000
   21        8.489722   1.000000
   22        8.876066   1.000000
   23       13.224045  -0.000000
   24       14.587549  -0.000000
   25       17.618182   0.000000
   26       19.349326   0.000000
   27       20.707417   0.000000
   28       21.521377   0.000000
   29       24.963094   0.000000
   30       25.448403   0.000000
 
  0.3333333E+00  0.3333333E+00  0.0000000E+00  0.1646091E-01
    1        2.267372   1.000000
    2        4.757431   1.000000
    3        4.757431   1.000000
    4        5.311645   1.000000
    5        5.485081   1.000000
    6        5.601387   1.000000
    7        5.601387   1.000000
    8        6.105711   1.000000
    9        6.312723   1.000000
   10        6.312723   1.000000
   11        6.491765   1.000000
   12        6.836496   1.000000
   13        7.275981   1.000000
   14        7.419332   1.000000
   15        7.723891   1.000000
   16        7.880714   1.000000
   17        7.880714   1.000000
   18        8.152757   1.000000
   19        8.152757   1.000000
   20        8.336120   1.000000
   21        8.482791   1.000000
   22       10.511367   0.527511
   23       10.511367   0.527511
   24       14.293191  -0.000000
   25       17.251851   0.000000
   26       20.595588   0.000000
   27       22.213793   0.000000
   28       22.213793   0.000000
   29       23.470151   0.000000
   30       23.470151   0.000000
 
  0.4444444E+00  0.3333333E+00  0.0000000E+00  0.3292181E-01
    1        3.180783   1.000000
    2        4.106164   1.000000
    3        5.188761   1.000000
    4        5.383593   1.000000
    5        5.687539   1.000000
    6        5.784358   1.000000
    7        5.870495   1.000000
    8        5.947164   1.000000
    9        5.965099   1.000000
   10        6.182865   1.000000
   11        6.414898   1.000000
   12        6.658526   1.000000
   13        7.441692   1.000000
   14        7.498544   1.000000
   15        7.594465   1.000000
   16        7.642106   1.000000
   17        7.655400   1.000000
   18        7.805628   1.000000
   19        8.171064   1.000000
   20        8.223822   1.000000
   21        8.902369   1.000000
   22        9.512644   1.000000
   23       11.523034  -0.000000
   24       12.753524  -0.000000
   25       18.704281   0.000000
   26       20.370604   0.000000
   27       21.278170   0.000000
   28       22.234494   0.000000
   29       23.475204   0.000000
   30       24.577541   0.000000
 
  0.4444444E+00  0.4444444E+00  0.0000000E+00  0.1646091E-01
    1        3.946363   1.000000
    2        4.671786   1.000000
    3        4.671786   1.000000
    4        5.109004   1.000000
    5        5.936909   1.000000
    6        5.936909   1.000000
    7        5.973154   1.000000
    8        5.992852   1.000000
    9        6.079211   1.000000
   10        6.218335   1.000000
   11        6.218335   1.000000
   12        6.491769   1.000000
   13        7.347519   1.000000
   14        7.447448   1.000000
   15        7.456446   1.000000
   16        7.456446   1.000000
   17        7.636826   1.000000
   18        7.869576   1.000000
   19        7.869576   1.000000
   20        8.005457   1.000000
   21        9.480114   1.000000
   22       10.296497   1.032959
   23       10.296497   1.032959
   24       11.334982  -0.000000
   25       20.075667   0.000000
   26       21.676867   0.000000
   27       21.676867   0.000000
   28       22.096448   0.000000
   29       23.193810   0.000000
   30       23.193829   0.000000
 
  0.1111111E+00  0.1111111E+00  0.1111111E+00  0.1097394E-01
    1       -0.081680   1.000000
    2        4.365955   1.000000
    3        4.365955   1.000000
    4        4.365955   1.000000
    5        4.946343   1.000000
    6        4.946343   1.000000
    7        4.946343   1.000000
    8        6.573164   1.000000
    9        6.805209   1.000000
   10        6.805209   1.000000
   11        7.801170   1.000000
   12        7.801170   1.000000
   13        8.051121   1.000000
   14        8.051121   1.000000
   15        8.051121   1.000000
   16        8.373445   1.000000
   17        8.373445   1.000000
   18        8.373445   1.000000
   19        8.735854   1.000000
   20        8.735854   1.000000
   21        8.735854   1.000000
   22       11.887272  -0.000000
   23       11.887272  -0.000000
   24       11.887272  -0.000000
   25       20.421399   0.000000
   26       20.421399   0.000000
   27       20.421399   0.000000
   28       22.690967   0.000000
   29       22.690967   0.000000
   30       22.690967   0.000000
 
  0.2222222E+00  0.1111111E+00  0.1111111E+00  0.3292181E-01
    1        0.421742   1.000000
    2        4.347505   1.000000
    3        4.608870   1.000000
    4        4.608870   1.000000
    5        5.091942   1.000000
    6        5.103262   1.000000
    7        5.103262   1.000000
    8        6.435602   1.000000
    9        6.900000   1.000000
   10        6.907041   1.000000
   11        7.435183   1.000000
   12        7.435183   1.000000
   13        7.671693   1.000000
   14        7.674811   1.000000
   15        7.896407   1.000000
   16        8.166529   1.000000
   17        8.203180   1.000000
   18        8.203180   1.000000
   19        8.667267   1.000000
   20        8.703483   1.000000
   21        8.703483   1.000000
   22       10.317212   1.025467
   23       12.856129  -0.000000
   24       12.856129  -0.000000
   25       20.259378   0.000000
   26       20.259378   0.000000
   27       21.096114   0.000000
   28       21.096114   0.000000
   29       22.847774   0.000000
   30       23.562333   0.000000
 
  0.3333333E+00  0.1111111E+00  0.1111111E+00  0.3292181E-01
    1        1.225091   1.000000
    2        4.080890   1.000000
    3        4.941173   1.000000
    4        4.941173   1.000000
    5        5.318896   1.000000
    6        5.353820   1.000000
    7        5.353820   1.000000
    8        6.199228   1.000000
    9        6.780572   1.000000
   10        6.780572   1.000000
   11        7.006800   1.000000
   12        7.076512   1.000000
   13        7.168548   1.000000
   14        7.586080   1.000000
   15        7.887859   1.000000
   16        7.969866   1.000000
   17        7.969866   1.000000
   18        8.039329   1.000000
   19        8.546090   1.000000
   20        8.674335   1.000000
   21        8.674335   1.000000
   22        9.056154   1.000000
   23       14.059634  -0.000000
   24       14.059634  -0.000000
   25       18.698333   0.000000
   26       18.698333   0.000000
   27       21.281228   0.000000
   28       21.281228   0.000000
   29       24.199301   0.000000
   30       24.427143   0.000000
 
  0.4444444E+00  0.1111111E+00  0.1111111E+00  0.3292181E-01
    1        2.251689   1.000000
    2        3.319946   1.000000
    3        5.227813   1.000000
    4        5.227813   1.000000
    5        5.602059   1.000000
    6        5.653578   1.000000
    7        5.653578   1.000000
    8        5.908230   1.000000
    9        6.235240   1.000000
   10        6.235240   1.000000
   11        6.903649   1.000000
   12        6.949283   1.000000
   13        7.308699   1.000000
   14        7.588296   1.000000
   15        7.767028   1.000000
   16        7.767028   1.000000
   17        7.783472   1.000000
   18        8.210282   1.000000
   19        8.266643   1.000000
   20        8.386772   1.000000
   21        8.661681   1.000000
   22        8.661681   1.000000
   23       15.318179  -0.000000
   24       15.318179  -0.000000
   25       17.176168   0.000000
   26       17.176168   0.000000
   27       21.878772   0.000000
   28       21.878772   0.000000
   29       23.286086   0.000000
   30       23.286086   0.000000
 
  0.2222222E+00  0.2222222E+00  0.1111111E+00  0.3292181E-01
    1        0.906820   1.000000
    2        4.606924   1.000000
    3        4.606924   1.000000
    4        4.816227   1.000000
    5        5.225571   1.000000
    6        5.236742   1.000000
    7        5.236742   1.000000
    8        6.365712   1.000000
    9        6.922934   1.000000
   10        6.948976   1.000000
   11        7.100039   1.000000
   12        7.100039   1.000000
   13        7.125143   1.000000
   14        7.676837   1.000000
   15        7.948294   1.000000
   16        7.989326   1.000000
   17        8.019786   1.000000
   18        8.019786   1.000000
   19        8.637139   1.000000
   20        8.637139   1.000000
   21        8.639342   1.000000
   22       11.151537  -0.000035
   23       11.151537  -0.000035
   24       13.613590  -0.000000
   25       18.393744   0.000000
   26       21.142988   0.000000
   27       21.176403   0.000000
   28       21.176403   0.000000
   29       23.518114   0.000000
   30       23.518114   0.000000
 
  0.3333333E+00  0.2222222E+00  0.1111111E+00  0.6584362E-01
    1        1.676582   1.000000
    2        4.364334   1.000000
    3        4.961270   1.000000
    4        5.100120   1.000000
    5        5.401088   1.000000
    6        5.449274   1.000000
    7        5.461933   1.000000
    8        6.201909   1.000000
    9        6.543966   1.000000
   10        6.694249   1.000000
   11        6.754036   1.000000
   12        6.922598   1.000000
   13        7.061213   1.000000
   14        7.659062   1.000000
   15        7.750471   1.000000
   16        7.789154   1.000000
   17        7.850109   1.000000
   18        8.146813   1.000000
   19        8.498739   1.000000
   20        8.560672   1.000000
   21        8.562718   1.000000
   22        9.732412   1.000000
   23       12.161797  -0.000000
   24       14.520026  -0.000000
   25       16.723910   0.000000
   26       19.361078   0.000000
   27       21.638134   0.000000
   28       22.155207   0.000000
   29       23.932408   0.000000
   30       25.125497   0.000000
 
  0.4444444E+00  0.2222222E+00  0.1111111E+00  0.6584362E-01
    1        2.650727   1.000000
    2        3.652621   1.000000
    3        5.305174   1.000000
    4        5.412088   1.000000
    5        5.486223   1.000000
    6        5.619980   1.000000
    7        5.707050   1.000000
    8        5.969420   1.000000
    9        6.196681   1.000000
   10        6.318358   1.000000
   11        6.664431   1.000000
   12        6.799121   1.000000
   13        7.233081   1.000000
   14        7.470296   1.000000
   15        7.642339   1.000000
   16        7.673134   1.000000
   17        7.867972   1.000000
   18        8.232693   1.000000
   19        8.418641   1.000000
   20        8.515802   1.000000
   21        8.516677   1.000000
   22        8.850922   1.000000
   23       13.283476  -0.000000
   24       14.424972  -0.000000
   25       16.518668   0.000000
   26       17.767953   0.000000
   27       22.409837   0.000000
   28       23.384638   0.000000
   29       23.417195   0.000000
   30       24.839986   0.000000
 
  0.3333333E+00  0.3333333E+00  0.1111111E+00  0.3292181E-01
    1        2.382203   1.000000
    2        4.736370   1.000000
    3        4.736370   1.000000
    4        5.214629   1.000000
    5        5.557917   1.000000
    6        5.664313   1.000000
    7        5.664313   1.000000
    8        6.161480   1.000000
    9        6.377680   1.000000
   10        6.377680   1.000000
   11        6.540234   1.000000
   12        6.840223   1.000000
   13        7.084147   1.000000
   14        7.590086   1.000000
   15        7.625053   1.000000
   16        7.625053   1.000000
   17        7.654031   1.000000
   18        8.380870   1.000000
   19        8.380870   1.000000
   20        8.431299   1.000000
   21        8.438145   1.000000
   22       10.563760   0.311386
   23       10.563760   0.311386
   24       14.047372  -0.000000
   25       16.290908   0.000000
   26       20.298594   0.000000
   27       20.298594   0.000000
   28       22.231594   0.000000
   29       24.606132   0.000000
   30       25.595935   0.000000
 
  0.4444444E+00  0.3333333E+00  0.1111111E+00  0.6584362E-01
    1        3.250926   1.000000
    2        4.115616   1.000000
    3        5.056356   1.000000
    4        5.213873   1.000000
    5        5.751292   1.000000
    6        5.845603   1.000000
    7        5.885448   1.000000
    8        6.054624   1.000000
    9        6.204733   1.000000
   10        6.355049   1.000000
   11        6.452208   1.000000
   12        6.672645   1.000000
   13        7.174388   1.000000
   14        7.370792   1.000000
   15        7.458604   1.000000
   16        7.488488   1.000000
   17        7.806408   1.000000
   18        8.106056   1.000000
   19        8.310295   1.000000
   20        8.330683   1.000000
   21        8.850576   1.000000
   22        9.484096   1.000000
   23       11.536540  -0.000000
   24       12.711879  -0.000000
   25       17.301775   0.000000
   26       18.677239   0.000000
   27       21.498728   0.000000
   28       22.937412   0.000000
   29       23.101458   0.000000
   30       24.250575   0.000000
 
  0.4444444E+00  0.4444444E+00  0.1111111E+00  0.3292181E-01
    1        3.941155   1.000000
    2        4.576688   1.000000
    3        4.576688   1.000000
    4        4.938962   1.000000
    5        6.042539   1.000000
    6        6.100058   1.000000
    7        6.100058   1.000000
    8        6.124643   1.000000
    9        6.296906   1.000000
   10        6.296906   1.000000
   11        6.313069   1.000000
   12        6.524565   1.000000
   13        7.151567   1.000000
   14        7.274645   1.000000
   15        7.274645   1.000000
   16        7.295989   1.000000
   17        7.853677   1.000000
   18        8.059809   1.000000
   19        8.059809   1.000000
   20        8.150268   1.000000
   21        9.424456   1.000000
   22       10.260237   1.034890
   23       10.260237   1.034890
   24       11.299320  -0.000000
   25       18.452541   0.000000
   26       19.855155   0.000000
   27       19.855155   0.000000
   28       21.276419   0.000000
   29       24.066265   0.000000
   30       25.310320   0.000000
 
  0.2222222E+00  0.2222222E+00  0.2222222E+00  0.1097394E-01
    1        1.365043   1.000000
    2        4.783872   1.000000
    3        4.783872   1.000000
    4        4.783872   1.000000
    5        5.368826   1.000000
    6        5.368826   1.000000
    7        5.368826   1.000000
    8        6.348938   1.000000
    9        6.880031   1.000000
   10        6.880031   1.000000
   11        6.880031   1.000000
   12        6.922669   1.000000
   13        6.922669   1.000000
   14        7.743345   1.000000
   15        7.743345   1.000000
   16        7.743345   1.000000
   17        7.871951   1.000000
   18        7.871951   1.000000
   19        8.681910   1.000000
   20        8.681910   1.000000
   21        8.681910   1.000000
   22       11.734817  -0.000000
   23       11.734817  -0.000000
   24       11.734817  -0.000000
   25       19.083744   0.000000
   26       19.083744   0.000000
   27       19.083744   0.000000
   28       23.870589   0.000000
   29       23.870589   0.000000
   30       23.870589   0.000000
 
  0.3333333E+00  0.2222222E+00  0.2222222E+00  0.3292181E-01
    1        2.083925   1.000000
    2        4.514456   1.000000
    3        4.989352   1.000000
    4        4.989352   1.000000
    5        5.566343   1.000000
    6        5.566343   1.000000
    7        5.610492   1.000000
    8        6.267286   1.000000
    9        6.602116   1.000000
   10        6.602116   1.000000
   11        6.648452   1.000000
   12        6.894010   1.000000
   13        6.951074   1.000000
   14        7.474516   1.000000
   15        7.565353   1.000000
   16        7.565353   1.000000
   17        7.891493   1.000000
   18        8.108357   1.000000
   19        8.616379   1.000000
   20        8.616379   1.000000
   21        8.647449   1.000000
   22       10.106178   1.006588
   23       12.502026  -0.000000
   24       12.502026  -0.000000
   25       17.332274   0.000000
   26       17.332274   0.000000
   27       20.031493   0.000000
   28       24.349667   0.000000
   29       24.460174   0.000000
   30       24.460174   0.000000
 
  0.4444444E+00  0.2222222E+00  0.2222222E+00  0.3292181E-01
    1        2.974611   1.000000
    2        3.867371   1.000000
    3        5.144628   1.000000
    4        5.144628   1.000000
    5        5.689475   1.000000
    6        5.689475   1.000000
    7        5.881224   1.000000
    8        6.108408   1.000000
    9        6.460370   1.000000
   10        6.460370   1.000000
   11        6.616002   1.000000
   12        6.758846   1.000000
   13        7.055158   1.000000
   14        7.234737   1.000000
   15        7.442192   1.000000
   16        7.442192   1.000000
   17        8.213850   1.000000
   18        8.338693   1.000000
   19        8.527649   1.000000
   20        8.545273   1.000000
   21        8.545273   1.000000
   22        8.933129   1.000000
   23       13.201826  -0.000000
   24       13.201826  -0.000000
   25       16.145321   0.000000
   26       16.145321   0.000000
   27       21.236707   0.000000
   28       22.678602   0.000000
   29       25.230380   0.000000
   30       25.230380   0.000000
 
  0.3333333E+00  0.3333333E+00  0.2222222E+00  0.3292181E-01
    1        2.704104   1.000000
    2        4.670803   1.000000
    3        4.670803   1.000000
    4        4.951764   1.000000
    5        5.778523   1.000000
    6        5.858874   1.000000
    7        5.858874   1.000000