unknown system                          
   1.00000000000000     
     2.330000    0.000000    0.000000
    -1.165000    2.017839    0.000000
     0.000000    0.000000    3.977000
   Fe
     2
Direct
  0.000000  0.000000  0.000000
  0.333333  0.666667  0.500000
 
   20   20   32
  156.77      148.55      126.46      96.763      66.537      41.161      23.411      13.537      9.6707      8.6238    
  8.3022      8.6240      9.6708      13.537      23.411      41.161      66.537      96.763      126.46      148.55    
  148.56      148.55      133.44      107.72      78.158      50.940      30.065      16.976      10.803      8.9009    
  8.2892      8.2888      8.9005      10.803      16.976      30.063      50.939      78.162      107.73      133.45    
  126.46      133.41      126.46      107.72      82.459      56.680      35.101      20.212      12.186      9.1975    
  8.3028      8.0010      8.3019      9.1973      12.186      20.211      35.097      56.678      82.463      107.73    
  96.759      107.64      107.64      96.763      78.158      56.680      36.978      22.175      13.341      9.5296    
  8.3326      7.7935      7.7932      8.3323      9.5303      13.342      22.175      36.975      56.675      78.152    
  66.525      78.047      82.309      78.056      66.537      50.940      35.101      22.175      13.791      9.7619    
  8.3618      7.6705      7.4330      7.6706      8.3618      9.7627      13.794      22.178      35.101      50.933    
  41.160      50.857      56.530      56.533      50.862      41.161      30.065      20.212      13.341      9.7618    
  8.3738      7.6167      7.2293      7.2296      7.6167      8.3726      9.7615      13.345      20.219      30.070    
  23.420      30.048      35.033      36.884      35.030      30.041      23.411      16.976      12.186      9.5295    
  8.3618      7.6167      7.1647      7.0185      7.1654      7.6158      8.3583      9.5261      12.186      16.982    
  13.537      17.008      20.244      22.191      22.187      20.235      17.002      13.537      10.803      9.1974    
  8.3326      7.6706      7.2292      7.0185      7.0192      7.2305      7.6702      8.3288      9.1907      10.797    
  9.6616      10.847      12.271      13.445      13.898      13.442      12.271      10.853      9.6708      8.9009    
  8.3028      7.7936      7.4330      7.2295      7.1655      7.2305      7.4357      7.7969      8.3027      8.8948    
  8.6236      8.9496      9.2945      9.6658      9.9196      9.9209      9.6699      9.3011      8.9552      8.6238    
  8.2891      8.0011      7.7932      7.6706      7.6168      7.6159      7.6701      7.7969      8.0084      8.2948    
  8.3106      8.3499      8.4093      8.4784      8.5368      8.5613      8.5402      8.4818      8.4087      8.3439    
  8.3021      8.2887      8.3020      8.3322      8.3618      8.3726      8.3583      8.3288      8.3028      8.2949    
  8.6234      8.3499      8.1160      7.9512      7.8601      7.8252      7.8261      7.8604      7.9475      8.1088    
  8.3443      8.6239      8.9006      9.1974      9.5302      9.7627      9.7615      9.5261      9.1908      8.8949    
  9.6615      8.9495      8.4095      7.9512      7.6299      7.4520      7.3968      7.4512      7.6272      7.9478    
  8.4094      8.9556      9.6708      10.803      12.186      13.342      13.794      13.345      12.186      10.797    
  13.537      10.848      9.2946      8.4785      7.8600      7.4520      7.2587      7.2581      7.4508      7.8604    
  8.4821      9.3010      10.853      13.537      16.976      20.211      22.175      22.178      20.219      16.982    
  23.420      17.008      12.271      9.6658      8.5367      7.8253      7.3969      7.2581      7.3961      7.8261    
  8.5402      9.6692      12.270      17.002      23.411      30.063      35.097      36.975      35.101      30.070    
  41.160      30.048      20.243      13.445      9.9197      8.5613      7.8261      7.4511      7.4508      7.8261    
  8.5625      9.9201      13.441      20.236      30.043      41.161      50.939      56.678      56.675      50.934    
  66.525      50.857      35.033      22.191      13.898      9.9209      8.5402      7.8603      7.6272      7.8604    
  8.5402      9.9200      13.895      22.188      35.033      50.864      66.537      78.162      82.463      78.153    
  96.759      78.047      56.530      36.884      22.187      13.442      9.6698      8.4818      7.9475      7.9478    
  8.4821      9.6692      13.441      22.188      36.887      56.536      78.053      96.763      107.73      107.73    
  126.46      107.64      82.309      56.533      35.029      20.235      12.271      9.3011      8.4087      8.1088    
  8.4093      9.3010      12.270      20.236      35.033      56.536      82.305      107.63      126.46      133.45    
  148.56      133.41      107.64      78.056      50.862      30.041      17.002      10.854      8.9552      8.3438    
  8.3443      8.9556      10.853      17.002      30.043      50.864      78.053      107.63      133.39      148.55    
  147.42      139.71      118.94      90.997      62.536      38.679      22.083      12.962      9.4609      8.4838    
  8.1712      8.4840      9.4610      12.962      22.083      38.679      62.536      90.997      118.94      139.71    
  139.71      139.71      125.50      101.30      73.466      47.848      28.269      16.103      10.461      8.7416    
  8.1468      8.1465      8.7412      10.461      16.103      28.268      47.846      73.469      101.31      125.51    
  118.94      125.48      118.94      101.30      77.511      53.235      32.967      19.080      11.697      9.0005    
  8.1523      7.8605      8.1514      9.0004      11.697      19.079      32.964      53.233      77.514      101.31    
  90.993      101.25      101.25      90.997      73.466      53.235      34.721      20.892      12.738      9.2852    
  8.1764      7.6560      7.6557      8.1761      9.2858      12.739      20.892      34.718      53.230      73.460    
  62.525      73.387      77.404      73.395      62.536      47.847      32.967      20.893      13.145      9.4855    
  8.2022      7.5353      7.3077      7.5354      8.2023      9.4862      13.147      20.896      32.967      47.841    
  38.678      47.801      53.146      53.149      47.806      38.679      28.269      19.080      12.737      9.4854    
  8.2131      7.4826      7.1118      7.1121      7.4826      8.2120      9.4851      12.741      19.087      28.274    
  22.091      28.288      32.964      34.703      32.961      28.282      22.083      16.103      11.696      9.2851    
  8.2022      7.4826      7.0499      6.9105      7.0505      7.4818      8.1991      9.2821      11.697      16.108    
  12.962      16.167      19.172      20.988      20.984      19.165      16.161      12.962      10.461      9.0004    
  8.1765      7.5354      7.1117      6.9105      6.9111      7.1129      7.5350      8.1730      8.9943      10.456    
  9.4525      10.534      11.837      12.917      13.335      12.914      11.837      10.540      9.4609      8.7416    
  8.1522      7.6561      7.3076      7.1121      7.0506      7.1129      7.3101      7.6591      8.1522      8.7360    
  8.4836      8.8171      9.1496      9.4937      9.7270      9.7281      9.4974      9.1556      8.8223      8.4839    
  8.1468      7.8605      7.6557      7.5354      7.4827      7.4818      7.5349      7.6591      7.8673      8.1521    
  8.1790      8.2330      8.3089      8.3933      8.4624      8.4906      8.4655      8.3964      8.3083      8.2274    
  8.1712      8.1464      8.1515      8.1761      8.2022      8.2120      8.1990      8.1729      8.1523      8.1521    
  8.4835      8.2329      8.0246      7.8837      7.8109      7.7858      7.7866      7.8112      7.8803      8.0180    
  8.2278      8.4839      8.7412      9.0004      9.2857      9.4862      9.4851      9.2820      8.9944      8.7360    
  9.4524      8.8171      8.3090      7.8838      7.5907      7.4313      7.3826      7.4306      7.5883      7.8806    
  8.3090      8.8227      9.4610      10.461      11.697      12.739      13.147      12.741      11.697      10.456    
  12.962      10.534      9.1497      8.3933      7.8108      7.4313      7.2534      7.2528      7.4303      7.8112    
  8.3967      9.1556      10.540      12.962      16.103      19.079      20.892      20.896      19.086      16.108    
  22.091      16.167      11.837      9.4937      8.4623      7.7858      7.3827      7.2528      7.3819      7.7865    
  8.4655      9.4968      11.836      16.161      22.083      28.268      32.964      34.718      32.967      28.274    
  38.678      28.288      19.172      12.917      9.7270      8.4906      7.7866      7.4306      7.4302      7.7865    
  8.4917      9.7274      12.913      19.166      28.283      38.679      47.846      53.233      53.230      47.841    
  62.525      47.801      32.964      20.988      13.335      9.7281      8.4654      7.8112      7.5882      7.8112    
  8.4655      9.7274      13.332      20.985      32.964      47.807      62.536      73.469      77.514      73.460    
  90.993      73.387      53.146      34.703      20.984      12.914      9.4974      8.3964      7.8803      7.8807    
  8.3967      9.4968      12.913      20.985      34.706      53.151      73.392      90.997      101.31      101.31    
  118.94      101.25      77.404      53.149      32.961      19.165      11.837      9.1557      8.3083      8.0179    
  8.3089      9.1556      11.836      19.166      32.964      53.151      77.401      101.24      118.94      125.51    
  139.71      125.48      101.25      73.395      47.806      28.282      16.161      10.540      8.8223      8.2274    
  8.2278      8.8227      10.540      16.161      28.283      47.807      73.392      101.24      125.46      139.70    
  122.62      116.22      98.945      75.644      51.904      32.134      18.645      11.517      8.9331      8.1045    
  7.8188      8.1046      8.9332      11.517      18.644      32.134      51.904      75.644      98.945      116.22    
  116.22      116.22      104.40      84.224      60.977      39.657      23.577      13.876      9.6118      8.3113    
  7.7653      7.7650      8.3109      9.6121      13.877      23.576      39.656      60.980      84.231      104.41    
  98.951      104.40      98.945      84.224      64.339      44.097      27.363      16.165      10.473      8.4946    
  7.7468      7.4841      7.7460      8.4944      10.473      16.165      27.361      44.095      64.341      84.231    
  75.641      84.219      84.220      75.644      60.977      44.096      28.784      17.576      11.217      8.6693    
  7.7526      7.2860      7.2857      7.7522      8.6697      11.218      17.576      28.781      44.092      60.973    
  51.895      60.984      64.350      60.991      51.904      39.657      27.364      17.576      11.513      8.7921    
  7.7664      7.1692      6.9690      7.1693      7.7665      8.7926      11.514      17.579      27.364      39.652    
  32.133      39.709      44.168      44.171      39.713      32.134      23.577      16.166      11.217      8.7921    
  7.7731      7.1179      6.7928      6.7932      7.1181      7.7723      8.7918      11.220      16.171      23.581    
  18.650      23.689      27.532      28.968      27.530      23.684      18.644      13.877      10.473      8.6692    
  7.7664      7.1179      6.7374      6.6162      6.7380      7.1174      7.7641      8.6670      10.473      13.881    
  11.517      14.022      16.416      17.877      17.874      16.410      14.017      11.517      9.6118      8.4945    
  7.7526      7.1693      6.7928      6.6161      6.6166      6.7936      7.1690      7.7499      8.4899      9.6077    
  8.9264      9.7573      10.753      11.587      11.912      11.585      10.753      9.7617      8.9331      8.3113    
  7.7467      7.2860      6.9690      6.7931      6.7381      6.7936      6.9707      7.2883      7.7467      8.3069    
  8.1043      8.4529      8.7713      9.0545      9.2379      9.2386      9.0572      8.7759      8.4569      8.1045    
  7.7653      7.4842      7.2857      7.1693      7.1182      7.1174      7.1689      7.2883      7.4894      7.7694    
  7.8249      7.9125      8.0234      8.1380      8.2272      8.2621      8.2295      8.1403      8.0228      7.9082    
  7.8188      7.7650      7.7461      7.7522      7.7664      7.7724      7.7640      7.7499      7.7468      7.7694    
  8.1042      7.9125      7.7644      7.6763      7.6413      7.6353      7.6360      7.6416      7.6737      7.7593    
  7.9085      8.1046      8.3110      8.4944      8.6696      8.7926      8.7918      8.6669      8.4899      8.3069    
  8.9263      8.4529      8.0235      7.6763      7.4462      7.3264      7.2910      7.3260      7.4446      7.6740    
  8.0234      8.4573      8.9331      9.6122      10.473      11.218      11.514      11.220      10.473      9.6077    
  11.517      9.7573      8.7714      8.1381      7.6412      7.3264      7.1819      7.1815      7.3257      7.6415    
  8.1406      8.7759      9.7613      11.517      13.877      16.165      17.576      17.579      16.171      13.881    
  18.651      14.022      10.753      9.0545      8.2271      7.6353      7.2911      7.1815      7.2903      7.6357    
  8.2295      9.0568      10.752      14.017      18.644      23.576      27.361      28.781      27.363      23.581    
  32.133      23.688      16.415      11.587      9.2379      8.2621      7.6360      7.3260      7.3256      7.6358    
  8.2628      9.2382      11.584      16.410      23.685      32.134      39.656      44.095      44.092      39.652    
  51.895      39.709      27.532      17.877      11.912      9.2387      8.2295      7.6415      7.4446      7.6415    
  8.2295      9.2382      11.910      17.874      27.532      39.714      51.904      60.980      64.341      60.973    
  75.641      60.984      44.169      28.968      17.874      11.585      9.0572      8.1403      7.6737      7.6740    
  8.1406      9.0568      11.584      17.874      28.970      44.173      60.988      75.644      84.231      84.231    
  98.951      84.219      64.350      44.171      27.529      16.410      10.753      8.7760      8.0228      7.7592    
  8.0234      8.7759      10.752      16.410      27.532      44.173      64.348      84.213      98.945      104.41    
  116.22      104.40      84.220      60.991      39.713      23.684      14.018      9.7618      8.4569      7.9081    
  7.9084      8.4573      9.7614      14.017      23.685      39.714      60.988      84.213      104.39      116.22    
  90.230      85.507      72.749      55.527      38.068      23.790      14.439      9.8571      8.2886      7.5899    
  7.3474      7.5900      8.2887      9.8570      14.439      23.790      38.068      55.527      72.749      85.507    
  85.510      85.507      76.765      61.831      44.662      29.103      17.715      11.242      8.6421      7.7220    
  7.2563      7.2560      7.7218      8.6425      11.243      17.715      29.103      44.664      61.836      76.771    
  72.753      76.792      72.749      61.831      47.113      32.269      20.287      12.647      9.0724      7.8388    
  7.2008      6.9828      7.2002      7.8386      9.0729      12.647      20.286      32.268      47.114      61.835    
  55.525      61.898      61.898      55.527      44.662      32.269      21.261      13.535      9.4598      7.9215    
  7.1744      6.7889      6.7886      7.1741      7.9216      9.4602      13.534      21.260      32.267      44.660    
  38.062      44.781      47.278      44.785      38.068      29.103      20.287      13.535      9.6175      7.9686    
  7.1658      6.6719      6.5106      6.6721      7.1658      7.9687      9.6182      13.536      20.287      29.100    
  23.789      29.282      32.548      32.549      29.284      23.790      17.715      12.647      9.4598      7.9686    
  7.1643      6.6189      6.3570      6.3573      6.6193      7.1640      7.9684      9.4614      12.651      17.718    
  14.443      17.944      20.671      21.699      20.669      17.941      14.439      11.243      9.0723      7.9214    
  7.1658      6.6190      6.3087      6.2113      6.3092      6.6188      7.1644      7.9201      9.0729      11.245    
  9.8567      11.487      13.091      14.088      14.087      13.088      11.485      9.8570      8.6422      7.8388    
  7.1744      6.6720      6.3569      6.2113      6.2116      6.3573      6.6717      7.1728      7.8359      8.6395    
  8.2842      8.8749      9.5213      10.059      10.270      10.058      9.5213      8.8778      8.2886      7.7220    
  7.2008      6.7889      6.5106      6.3573      6.3093      6.3574      6.5114      6.7902      7.2007      7.7192    
  7.5897      7.9421      8.2667      8.5148      8.6541      8.6545      8.5163      8.2695      7.9446      7.5899    
  7.2563      6.9828      6.7886      6.6721      6.6194      6.6188      6.6717      6.7902      6.9862      7.2589    
  7.3513      7.4744      7.6157      7.7522      7.8534      7.8916      7.8548      7.7534      7.6151      7.4716    
  7.3474      7.2560      7.2002      7.1740      7.1658      7.1640      7.1644      7.1728      7.2008      7.2589    
  7.5896      7.4743      7.3953      7.3598      7.3576      7.3664      7.3668      7.3580      7.3582      7.3920    
  7.4718      7.5899      7.7218      7.8386      7.9215      7.9687      7.9684      7.9201      7.8359      7.7192    
  8.2842      7.9420      7.6157      7.3599      7.1957      7.1131      7.0895      7.1131      7.1949      7.3584    
  7.6157      7.9449      8.2886      8.6425      9.0729      9.4602      9.6183      9.4615      9.0729      8.6395    
  9.8567      8.8749      8.2668      7.7522      7.3576      7.1131      7.0025      7.0023      7.1128      7.3578    
  7.7538      8.2696      8.8774      9.8571      11.243      12.647      13.534      13.536      12.651      11.245    
  14.443      11.487      9.5213      8.5148      7.8534      7.3664      7.0895      7.0023      7.0889      7.3664    
  7.8548      8.5162      9.5207      11.484      14.439      17.715      20.286      21.260      20.287      17.718    
  23.789      17.944      13.091      10.059      8.6542      7.8916      7.3669      7.1131      7.1127      7.3665    
  7.8920      8.6544      10.058      13.088      17.941      23.790      29.103      32.268      32.267      29.100    
  38.062      29.282      20.671      14.088      10.270      8.6545      7.8547      7.3579      7.1949      7.3579    
  7.8548      8.6544      10.269      14.087      20.671      29.285      38.068      44.664      47.114      44.660    
  55.525      44.781      32.548      21.699      14.087      10.058      8.5162      7.7535      7.3582      7.3585    
  7.7538      8.5161      10.058      14.087      21.701      32.551      44.784      55.527      61.836      61.835    
  72.753      61.898      47.278      32.549      20.669      13.088      9.5213      8.2695      7.6152      7.3919    
  7.6157      8.2696      9.5208      13.088      20.671      32.551      47.276      61.894      72.749      76.771    
  85.510      76.792      61.898      44.785      29.284      17.941      11.485      8.8779      7.9446      7.4715    
  7.4718      7.9449      8.8775      11.484      17.941      29.285      44.784      61.894      76.786      85.507    
  58.663      55.573      47.239      36.063      24.939      16.200      10.894      8.5659      7.6293      7.0638    
  6.8752      7.0639      7.6294      8.5659      10.894      16.200      24.939      36.063      47.239      55.573    
  55.575      55.573      49.843      40.096      29.033      19.301      12.586      9.1339      7.8203      7.1074    
  6.7434      6.7432      7.1072      7.8206      9.1345      12.586      19.301      29.034      40.098      49.846    
  47.241      49.894      47.239      40.096      30.567      21.186      13.970      9.7458      7.9635      7.1466    
  6.6434      6.4777      6.6429      7.1464      7.9640      9.7461      13.969      21.186      30.567      40.098    
  36.062      40.227      40.227      36.063      29.033      21.186      14.504      10.150      8.0783      7.1722    
  6.5753      6.2828      6.2826      6.5750      7.1721      8.0783      10.150      14.503      21.185      29.032    
  24.937      29.250      30.867      29.252      24.939      19.301      13.970      10.150      8.1258      7.1835    
  6.5364      6.1591      6.0393      6.1593      6.5365      7.1834      8.1258      10.150      13.970      19.300    
  16.200      19.591      21.647      21.647      19.592      16.200      12.586      9.7458      8.0783      7.1835    
  6.5239      6.1002      5.9034      5.9037      6.1006      6.5238      7.1833      8.0790      9.7476      12.587    
  10.896      12.916      14.542      15.165      14.542      12.915      10.894      9.1340      7.9635      7.1721    
  6.5364      6.1002      5.8602      5.7859      5.8606      6.1003      6.5359      7.1716      7.9640      9.1355    
  8.5656      9.4684      10.363      10.929      10.928      10.362      9.4674      8.5659      7.8203      7.1466    
  6.5753      6.1592      5.9034      5.7859      5.7859      5.9035      6.1590      6.5745      7.1453      7.8190    
  7.6270      8.1358      8.5701      8.8908      9.0124      8.8902      8.5701      8.1373      7.6293      7.1074    
  6.6433      6.2828      6.0393      5.9037      5.8606      5.9035      6.0394      6.2833      6.6433      7.1059    
  7.0637      7.4049      7.7232      7.9693      8.1030      8.1031      7.9697      7.7243      7.4061      7.0638    
  6.7434      6.4777      6.2826      6.1593      6.1007      6.1003      6.1590      6.2833      6.4794      6.7447    
  6.8771      7.0332      7.1980      7.3480      7.4547      7.4937      7.4552      7.3484      7.1976      7.0318    
  6.8752      6.7432      6.6429      6.5749      6.5364      6.5239      6.5359      6.5745      6.6434      6.7447    
  7.0636      7.0332      7.0255      7.0411      7.0686      7.0898      7.0901      7.0689      7.0404      7.0239    
  7.0320      7.0638      7.1072      7.1464      7.1720      7.1834      7.1833      7.1716      7.1453      7.1059    
  7.6270      7.4049      7.1981      7.0411      6.9448      6.8991      6.8868      6.8994      6.9447      7.0406    
  7.1980      7.4063      7.6293      7.8206      7.9639      8.0783      8.1259      8.0790      7.9640      7.8190    
  8.5656      8.1358      7.7232      7.3480      7.0686      6.8991      6.8235      6.8235      6.8991      7.0688    
  7.3487      7.7244      8.1370      8.5659      9.1345      9.7461      10.150      10.150      9.7476      9.1355    
  10.896      9.4684      8.5701      7.9692      7.4546      7.0898      6.8868      6.8235      6.8864      7.0896    
  7.4552      7.9698      8.5697      9.4668      10.894      12.586      13.969      14.503      13.970      12.587    
  16.200      12.916      10.363      8.8908      8.1031      7.4937      7.0901      6.8994      6.8991      7.0896    
  7.4937      8.1032      8.8901      10.361      12.915      16.200      19.301      21.186      21.185      19.300    
  24.937      19.591      14.542      10.929      9.0124      8.1031      7.4551      7.0689      6.9447      7.0688    
  7.4552      8.1032      9.0123      10.928      14.542      19.592      24.939      29.034      30.568      29.032    
  36.062      29.250      21.647      15.165      10.928      8.8901      7.9697      7.3484      7.0404      7.0406    
  7.3487      7.9698      8.8901      10.928      15.166      21.648      29.252      36.063      40.098      40.098    
  47.241      40.227      30.867      21.648      14.542      10.361      8.5701      7.7244      7.1977      7.0238    
  7.1980      7.7244      8.5697      10.361      14.542      21.648      30.867      40.225      47.239      49.846    
  55.575      49.894      40.227      29.252      19.592      12.915      9.4674      8.1374      7.4061      7.0317    
  7.0319      7.4063      8.1371      9.4668      12.915      19.592      29.252      40.225      49.891      55.573    
  33.787      32.037      27.357      21.212      15.348      11.079      8.7686      7.7315      7.0389      6.6246    
  6.4912      6.6247      7.0389      7.7315      8.7686      11.079      15.348      21.212      27.357      32.037    
  32.038      32.037      28.794      23.359      17.386      12.436      9.3438      7.9022      7.1138      6.5762    
  6.3167      6.3166      6.5761      7.1140      7.9027      9.3442      12.436      17.386      23.360      28.795    
  27.357      28.858      27.357      23.359      18.163      13.293      9.8488      8.0437      7.1602      6.5350    
  6.1712      6.0553      6.1709      6.5349      7.1605      8.0441      9.8488      13.293      18.163      23.360    
  21.212      23.527      23.527      21.212      17.386      13.293      10.051      8.1388      7.1793      6.5016    
  6.0612      5.8550      5.8549      6.0610      6.5014      7.1792      8.1386      10.051      13.293      17.386    
  15.348      17.660      18.541      17.661      15.348      12.436      9.8488      8.1388      7.1834      6.4819    
  5.9921      5.7208      5.6366      5.7210      5.9921      6.4817      7.1831      8.1387      9.8488      12.436    
  11.079      12.791      13.860      13.860      12.792      11.079      9.3438      8.0438      7.1793      6.4819    
  5.9685      5.6537      5.5108      5.5110      5.6541      5.9686      6.4818      7.1795      8.0444      9.3444    
  8.7691      9.7403      10.540      10.851      10.540      9.7401      8.7686      7.9022      7.1602      6.5016    
  5.9921      5.6538      5.4699      5.4129      5.4701      5.6540      5.9921      6.5016      7.1605      7.9028    
  7.7313      8.3042      8.7851      9.0759      9.0758      8.7849      8.3041      7.7315      7.1138      6.5350    
  6.0612      5.7209      5.5108      5.4129      5.4129      5.5107      5.7208      6.0610      6.5347      7.1134    
  7.0381      7.5032      7.9019      8.1697      8.2636      8.1694      7.9018      7.5037      7.0389      6.5762    
  6.1712      5.8551      5.6366      5.5110      5.4702      5.5107      5.6364      5.8551      6.1712      6.5758    
  6.6246      6.9517      7.2585      7.4982      7.6299      7.6298      7.4981      7.2586      6.9520      6.6246    
  6.3167      6.0553      5.8549      5.7210      5.6541      5.6540      5.7207      5.8551      6.0558      6.3171    
  6.4917      6.6845      6.8784      7.0484      7.1662      7.2084      7.1662      7.0483      6.8782      6.6841    
  6.4912      6.3166      6.1709      6.0610      5.9921      5.9686      5.9921      6.0610      6.1712      6.3171    
  6.6245      6.6845      6.7568      6.8346      6.9029      6.9436      6.9437      6.9031      6.8345      6.7564    
  6.6842      6.6246      6.5761      6.5349      6.5014      6.4817      6.4818      6.5016      6.5348      6.5758    
  7.0381      6.9516      6.8785      6.8346      6.8202      6.8225      6.8257      6.8228      6.8205      6.8346    
  6.8784      6.9521      7.0389      7.1140      7.1604      7.1792      7.1832      7.1795      7.1604      7.1134    
  7.7313      7.5032      7.2585      7.0484      6.9029      6.8225      6.7901      6.7902      6.8226      6.9030    
  7.0486      7.2587      7.5035      7.7315      7.9027      8.0441      8.1386      8.1387      8.0443      7.9027    
  8.7691      8.3042      7.9018      7.4982      7.1661      6.9436      6.8258      6.7902      6.8255      6.9433    
  7.1662      7.4983      7.9016      8.3036      8.7686      9.3442      9.8488      10.051      9.8488      9.3444    
  11.079      9.7403      8.7851      8.1696      7.6299      7.2084      6.9437      6.8228      6.8226      6.9433    
  7.2083      7.6300      8.1695      8.7846      9.7397      11.079      12.436      13.293      13.293      12.436    
  15.348      12.791      10.540      9.0759      8.2637      7.6298      7.1661      6.9031      6.8205      6.9030    
  7.1662      7.6300      8.2639      9.0760      10.540      12.791      15.348      17.386      18.163      17.386    
  21.212      17.660      13.860      10.851      9.0758      8.1694      7.4981      7.0484      6.8345      6.8346    
  7.0486      7.4983      8.1695      9.0760      10.851      13.861      17.661      21.212      23.360      23.360    
  27.357      23.527      18.541      13.860      10.540      8.7848      7.9018      7.2586      6.8782      6.7563    
  6.8784      7.2587      7.9016      8.7846      10.540      13.861      18.541      23.526      27.357      28.795    
  32.038      28.858      23.527      17.661      12.791      9.7400      8.3041      7.5038      6.9520      6.6841    
  6.6842      6.9521      7.5035      8.3036      9.7397      12.791      17.661      23.526      28.857      32.037    
  17.969      17.174      15.090      12.474      10.162      8.6421      7.7700      7.0919      6.6047      6.3294    
  6.2429      6.3294      6.6047      7.0919      7.7699      8.6421      10.162      12.474      15.090      17.174    
  17.174      17.174      15.705      13.320      10.851      8.9850      7.8865      7.1424      6.5630      6.1936    
  6.0219      6.0218      6.1935      6.5631      7.1427      7.8869      8.9852      10.851      13.319      15.705    
  15.090      15.770      15.090      13.320      11.124      9.2170      7.9665      7.1676      6.5262      6.0807    