unknown system                          
   1.00000000000000     
     2.330000    0.000000    0.000000
    -1.165000    2.017839    0.000000
     0.000000    0.000000    3.977000
   Fe
     2
Direct
  0.000000  0.000000  0.000000
  0.333333  0.666667  0.500000
 
   20   20   32
 0.15676763548E+03 0.14855237099E+03 0.12645525928E+03 0.96762794637E+02 0.66536639264E+02
 0.41161209371E+02 0.23411474029E+02 0.13537386500E+02 0.96707081037E+01 0.86237852566E+01
 0.83021645612E+01 0.86239506189E+01 0.96708476117E+01 0.13537358371E+02 0.23411354231E+02
 0.41161177712E+02 0.66536747238E+02 0.96762920487E+02 0.12645528756E+03 0.14855233501E+03
 0.14855802930E+03 0.14855227964E+03 0.13343525061E+03 0.10772162339E+03 0.78158218859E+02
 0.50940470102E+02 0.30064626114E+02 0.16975565269E+02 0.10802943425E+02 0.89009060322E+01
 0.82891500289E+01 0.82887654032E+01 0.89005145282E+01 0.10803313079E+02 0.16975623969E+02
 0.30063072510E+02 0.50939192943E+02 0.78161930204E+02 0.10773236584E+03 0.13344798999E+03
 0.12646371959E+03 0.13340724275E+03 0.12645527943E+03 0.10772171196E+03 0.82459251171E+02
 0.56680407776E+02 0.35100865166E+02 0.20211743493E+02 0.12185657782E+02 0.91974535919E+01
 0.83028046850E+01 0.80010278068E+01 0.83019150940E+01 0.91973391982E+01 0.12186419182E+02
 0.20210977656E+02 0.35097437114E+02 0.56677794805E+02 0.82462612290E+02 0.10773110497E+03
 0.96759144939E+02 0.10764233861E+03 0.10764361564E+03 0.96762964247E+02 0.78158189362E+02
 0.56680333962E+02 0.36978153008E+02 0.22175007704E+02 0.13340914226E+02 0.95295743254E+01
 0.83326021194E+01 0.77935299073E+01 0.77931737469E+01 0.83322562752E+01 0.95302639098E+01
 0.13342107485E+02 0.22174647429E+02 0.36974746691E+02 0.56674615195E+02 0.78152460363E+02
 0.66524820346E+02 0.78047094773E+02 0.82308628678E+02 0.78056496985E+02 0.66536649836E+02
 0.50940324172E+02 0.35100906321E+02 0.22175062917E+02 0.13791316863E+02 0.97618657529E+01
 0.83617535010E+01 0.76705327687E+01 0.74330065936E+01 0.76706094389E+01 0.83618392422E+01
 0.97627257836E+01 0.13793977595E+02 0.22178422977E+02 0.35100931984E+02 0.50933498649E+02
 0.41159949159E+02 0.50856692562E+02 0.56529989153E+02 0.56533144457E+02 0.50862334704E+02
 0.41161133168E+02 0.30064635028E+02 0.20211859860E+02 0.13340864512E+02 0.97618281855E+01
 0.83738181640E+01 0.76167226439E+01 0.72292552048E+01 0.72295924062E+01 0.76167219669E+01
 0.83726033690E+01 0.97614972305E+01 0.13344654480E+02 0.20219161366E+02 0.30069995356E+02
 0.23419786253E+02 0.30047875111E+02 0.35032972420E+02 0.36883784724E+02 0.35029542566E+02
 0.30041040552E+02 0.23411415865E+02 0.16975643318E+02 0.12185632991E+02 0.95294874930E+01
 0.83618098215E+01 0.76167467491E+01 0.71647104116E+01 0.70185150210E+01 0.71653993039E+01
 0.76158366056E+01 0.83583443714E+01 0.95261451701E+01 0.12186419182E+02 0.16981661454E+02
 0.13536998285E+02 0.17008066949E+02 0.20243502419E+02 0.22190999659E+02 0.22187260267E+02
 0.20235385956E+02 0.17002064719E+02 0.13537370139E+02 0.10802987233E+02 0.91973775748E+01
 0.83326378620E+01 0.76705932166E+01 0.72291874338E+01 0.70184961165E+01 0.70192182990E+01
 0.72304608729E+01 0.76702493526E+01 0.83288408135E+01 0.91907441270E+01 0.10797258700E+02
 0.96616410672E+01 0.10847497957E+02 0.12270796114E+02 0.13444580193E+02 0.13897606943E+02
 0.13442053561E+02 0.12270772783E+02 0.10853463913E+02 0.96707688627E+01 0.89008930800E+01
 0.83027683179E+01 0.77935932652E+01 0.74329572090E+01 0.72295475201E+01 0.71654849345E+01
 0.72304837578E+01 0.74357269415E+01 0.77969492950E+01 0.83026896169E+01 0.88948202348E+01
 0.86235638017E+01 0.89495558702E+01 0.92945086864E+01 0.96658242266E+01 0.99196448515E+01
 0.99208682327E+01 0.96699296980E+01 0.93010774090E+01 0.89551888706E+01 0.86238406458E+01
 0.82890833336E+01 0.80010528675E+01 0.77932064480E+01 0.76705664857E+01 0.76167903746E+01
 0.76158809081E+01 0.76701459515E+01 0.77969186381E+01 0.80083697814E+01 0.82948465138E+01
 0.83105965828E+01 0.83498871877E+01 0.84093373117E+01 0.84784390975E+01 0.85368097479E+01
 0.85612950760E+01 0.85402175942E+01 0.84818207458E+01 0.84086575791E+01 0.83439207986E+01
 0.83021470037E+01 0.82887330873E+01 0.83019937950E+01 0.83322412048E+01 0.83618098215E+01
 0.83726261819E+01 0.83582586302E+01 0.83287900005E+01 0.83028046850E+01 0.82948808931E+01
 0.86234448580E+01 0.83498574668E+01 0.81160371487E+01 0.79512214796E+01 0.78600814900E+01
 0.78252358149E+01 0.78260766594E+01 0.78603707901E+01 0.79474626824E+01 0.81088311995E+01
 0.83442977681E+01 0.86238870644E+01 0.89005526815E+01 0.91973578870E+01 0.95301710833E+01
 0.97627163400E+01 0.97615253544E+01 0.95261391760E+01 0.91908388331E+01 0.88948713403E+01
 0.96615463395E+01 0.89495175885E+01 0.84094511379E+01 0.79512381383E+01 0.76299052767E+01
 0.74519672808E+01 0.73968232184E+01 0.74511690718E+01 0.76272257405E+01 0.79478030809E+01
 0.84093873218E+01 0.89555756879E+01 0.96708136429E+01 0.10803347320E+02 0.12186362733E+02
 0.13342093065E+02 0.13794081991E+02 0.13344689774E+02 0.12186387525E+02 0.10797249132E+02
 0.13537037062E+02 0.10847522183E+02 0.92945954825E+01 0.84784523765E+01 0.78599831098E+01
 0.74519692421E+01 0.72587277280E+01 0.72580723070E+01 0.74508196335E+01 0.78603617503E+01
 0.84821336132E+01 0.93010400301E+01 0.10853114475E+02 0.13537380787E+02 0.16975649565E+02
 0.20210980745E+02 0.22174713479E+02 0.22178433814E+02 0.20219048089E+02 0.16981609000E+02
 0.23419906050E+02 0.17008123412E+02 0.12270751275E+02 0.96657888855E+01 0.85367389296E+01
 0.78252544177E+01 0.73968982626E+01 0.72580521955E+01 0.73960934757E+01 0.78260623550E+01
 0.85402175942E+01 0.96692167867E+01 0.12269998260E+02 0.17002030727E+02 0.23411415865E+02
 0.30063080381E+02 0.35097411450E+02 0.36974703554E+02 0.35100865166E+02 0.30069994313E+02
 0.41160012465E+02 0.30047861215E+02 0.20243383178E+02 0.13444534707E+02 0.99196915888E+01
 0.85613355076E+01 0.78261252291E+01 0.74511217749E+01 0.74507703753E+01 0.78260923219E+01
 0.85625285524E+01 0.99200581444E+01 0.13440856656E+02 0.20236222776E+02 0.30042580650E+02
 0.41161164815E+02 0.50939127267E+02 0.56677755319E+02 0.56674649524E+02 0.50933578903E+02
 0.66524774357E+02 0.50856587412E+02 0.35032916620E+02 0.22191031030E+02 0.13897713590E+02
 0.99208884943E+01 0.85401718147E+01 0.78603325481E+01 0.76272021343E+01 0.78604218886E+01
 0.85402426330E+01 0.99200316688E+01 0.13894948581E+02 0.22187620354E+02 0.35032975451E+02
 0.50863563257E+02 0.66536711822E+02 0.78161964910E+02 0.82462684056E+02 0.78152524566E+02
 0.96759065152E+02 0.78047018471E+02 0.56530043917E+02 0.36883896140E+02 0.22187301545E+02
 0.13442002128E+02 0.96698444644E+01 0.84818324229E+01 0.79475086536E+01 0.79478323934E+01
 0.84821320113E+01 0.96691668941E+01 0.13440850708E+02 0.22187630261E+02 0.36887171017E+02
 0.56535645388E+02 0.78052767501E+02 0.96763010310E+02 0.10773239661E+03 0.10773104717E+03
 0.12646369131E+03 0.10764241110E+03 0.82308711402E+02 0.56533215921E+02 0.35029483734E+02
 0.20235284783E+02 0.12270751275E+02 0.93011475331E+01 0.84087213952E+01 0.81087952611E+01
 0.84093373117E+01 0.93010233581E+01 0.12270021591E+02 0.20236240843E+02 0.35032972420E+02
 0.56535662089E+02 0.82305133808E+02 0.10763293860E+03 0.12645527943E+03 0.13344784639E+03
 0.14855804393E+03 0.13340741531E+03 0.10764363965E+03 0.78056420894E+02 0.50862260351E+02
 0.30040991371E+02 0.17002124379E+02 0.10853544560E+02 0.89551905270E+01 0.83438441298E+01
 0.83442508202E+01 0.89556156259E+01 0.10853170895E+02 0.17002033924E+02 0.30042545364E+02
 0.50863594053E+02 0.78052767711E+02 0.10763289013E+03 0.13339461465E+03 0.14855225828E+03
 0.14741984449E+03 0.13970510309E+03 0.11893705917E+03 0.90996622335E+02 0.62536273111E+02
 0.38678829192E+02 0.22083350845E+02 0.12962296316E+02 0.94608699277E+01 0.84838282477E+01
 0.81712326256E+01 0.84839866519E+01 0.94610036940E+01 0.12962269185E+02 0.22083234591E+02
 0.38678795719E+02 0.62536373042E+02 0.90996741020E+02 0.11893708661E+03 0.13970506971E+03
 0.13971031853E+03 0.13970501404E+03 0.12549696528E+03 0.10130485473E+03 0.73465652059E+02
 0.47847517307E+02 0.28269210814E+02 0.16102576495E+02 0.10461013175E+02 0.87415836693E+01
 0.81468422048E+01 0.81464708330E+01 0.87412052743E+01 0.10461390305E+02 0.16102722291E+02
 0.28267865997E+02 0.47846369668E+02 0.73469053386E+02 0.10131473463E+03 0.12550870717E+03
 0.11894486290E+03 0.12547636511E+03 0.11893707817E+03 0.10130494074E+03 0.77511029436E+02
 0.53235484467E+02 0.32967153055E+02 0.19079676397E+02 0.11696514704E+02 0.90005107186E+01
 0.81522627913E+01 0.78604795690E+01 0.81513980396E+01 0.90003801829E+01 0.11697257115E+02
 0.19079045826E+02 0.32964034341E+02 0.53233057617E+02 0.77514088303E+02 0.10131358249E+03
 0.90993277752E+02 0.10124574160E+03 0.10124691184E+03 0.90996787009E+02 0.73465623905E+02
 0.53235412971E+02 0.34720795795E+02 0.20892488198E+02 0.12737542521E+02 0.92851792483E+01
 0.81764250456E+01 0.76559933609E+01 0.76556512996E+01 0.81760727484E+01 0.92857763192E+01
 0.12738606033E+02 0.20892120415E+02 0.34717622343E+02 0.53230119913E+02 0.73460341293E+02
 0.62525413451E+02 0.73386672329E+02 0.77404364380E+02 0.73395324200E+02 0.62536283933E+02
 0.47847376012E+02 0.32967192792E+02 0.20892541724E+02 0.13145026704E+02 0.94854781201E+01
 0.82021709576E+01 0.75353082113E+01 0.73076601046E+01 0.75354042743E+01 0.82022537699E+01
 0.94862194267E+01 0.13147397174E+02 0.20895583683E+02 0.32967217642E+02 0.47841120842E+02
 0.38677698071E+02 0.47801075407E+02 0.53145803558E+02 0.53148718357E+02 0.47806275583E+02
 0.38678755551E+02 0.28269219373E+02 0.19079789255E+02 0.12737494656E+02 0.94854417486E+01
 0.82130720469E+01 0.74825670004E+01 0.71117783802E+01 0.71121240951E+01 0.74826335945E+01
 0.82119859479E+01 0.94851217786E+01 0.12740971653E+02 0.19086544446E+02 0.28274212470E+02
 0.22091010881E+02 0.28288034246E+02 0.32964420867E+02 0.34703150873E+02 0.32961295845E+02
 0.28281769236E+02 0.22083294561E+02 0.16102652262E+02 0.11696490858E+02 0.92850950132E+01
 0.82022249476E+01 0.74825901166E+01 0.70498619185E+01 0.69104723413E+01 0.70505324910E+01
 0.74817982614E+01 0.81990704693E+01 0.92820507362E+01 0.11697257115E+02 0.16108233431E+02
 0.12961901311E+02 0.16166683211E+02 0.19172474948E+02 0.20987831564E+02 0.20984399793E+02
 0.19165034686E+02 0.16161202479E+02 0.12962280450E+02 0.10461055358E+02 0.90004366284E+01
 0.81764591274E+01 0.75353664835E+01 0.71117130993E+01 0.69104542778E+01 0.69111025302E+01
 0.71128538693E+01 0.75350364005E+01 0.81729773543E+01 0.89943470847E+01 0.10455773606E+02
 0.94524739240E+01 0.10534351180E+02 0.11837178790E+02 0.12916805720E+02 0.13334560787E+02
 0.12914459022E+02 0.11837155879E+02 0.10539883018E+02 0.94609282844E+01 0.87415705920E+01
 0.81522276070E+01 0.76560550691E+01 0.73076127029E+01 0.71120809731E+01 0.70506153980E+01
 0.71128760282E+01 0.73100899257E+01 0.76591145676E+01 0.81521515190E+01 0.87359564492E+01
 0.84836147588E+01 0.88171380049E+01 0.91496280397E+01 0.94937178073E+01 0.97269915111E+01
 0.97280870134E+01 0.94974362791E+01 0.91556393636E+01 0.88223283634E+01 0.84838818528E+01
 0.81467782426E+01 0.78605047792E+01 0.76556831760E+01 0.75353624642E+01 0.74826996948E+01
 0.74818412455E+01 0.75349363182E+01 0.76590847357E+01 0.78672524342E+01 0.81520915512E+01
 0.81790089162E+01 0.82329566631E+01 0.83089321340E+01 0.83933243989E+01 0.84623790447E+01
 0.84905633947E+01 0.84654828906E+01 0.83963908022E+01 0.83082693258E+01 0.82274442294E+01
 0.81712163985E+01 0.81464402851E+01 0.81514741276E+01 0.81760573179E+01 0.82022249476E+01
 0.82120083345E+01 0.81989876570E+01 0.81729278419E+01 0.81522627913E+01 0.81521249656E+01
 0.84834995331E+01 0.82329276999E+01 0.80246149199E+01 0.78837443888E+01 0.78108908101E+01
 0.77857825741E+01 0.77865750520E+01 0.78111896364E+01 0.78802942975E+01 0.80179689729E+01
 0.82278068796E+01 0.84839250314E+01 0.87412418775E+01 0.90003974690E+01 0.92856860427E+01
 0.94862106820E+01 0.94851494055E+01 0.92820446948E+01 0.89944384611E+01 0.87360061296E+01
 0.94523822682E+01 0.88171006471E+01 0.83090425405E+01 0.78837608160E+01 0.75906585265E+01
 0.74313140264E+01 0.73826269389E+01 0.74306490288E+01 0.75882645993E+01 0.78806230121E+01
 0.83089806947E+01 0.88227002566E+01 0.94609703949E+01 0.10461423232E+02 0.11697202227E+02
 0.12738592304E+02 0.13147498635E+02 0.12741005789E+02 0.11697226073E+02 0.10455764350E+02
 0.12961939119E+02 0.10534374629E+02 0.91497122359E+01 0.83933378042E+01 0.78107956175E+01
 0.74313157473E+01 0.72533939976E+01 0.72528082045E+01 0.74302918322E+01 0.78111611543E+01
 0.83967140632E+01 0.91556246670E+01 0.10539525822E+02 0.12962291128E+02 0.16102747144E+02
 0.19079048804E+02 0.20892184527E+02 0.20895594269E+02 0.19086434566E+02 0.16108182517E+02
 0.22091127136E+02 0.16166738110E+02 0.11837135290E+02 0.94936838065E+01 0.84623105255E+01
 0.77858002194E+01 0.73826993368E+01 0.72527886369E+01 0.73819155700E+01 0.77864945016E+01
 0.84654828906E+01 0.94968162218E+01 0.11836402399E+02 0.16161082769E+02 0.22083294561E+02
 0.28267873560E+02 0.32964009491E+02 0.34717580691E+02 0.32967153055E+02 0.28274211474E+02
 0.38677759377E+02 0.28288020851E+02 0.19172359239E+02 0.12916761446E+02 0.97270367391E+01
 0.84906022739E+01 0.77866218699E+01 0.74306031293E+01 0.74302442118E+01 0.77865236742E+01
 0.84916671450E+01 0.97273890919E+01 0.12913389208E+02 0.19165736627E+02 0.28283101366E+02
 0.38678783385E+02 0.47846306197E+02 0.53233019518E+02 0.53230153310E+02 0.47841198667E+02
 0.62525368679E+02 0.47800973426E+02 0.32964366724E+02 0.20987861675E+02 0.13334663952E+02
 0.97281065537E+01 0.84654386671E+01 0.78111528141E+01 0.75882417538E+01 0.78112195247E+01
 0.84655071863E+01 0.97273634042E+01 0.13332186125E+02 0.20984767666E+02 0.32964423986E+02
 0.47807373231E+02 0.62536339092E+02 0.73469087173E+02 0.77514157578E+02 0.73460403234E+02
 0.90993200247E+02 0.73386598580E+02 0.53145856866E+02 0.34703258782E+02 0.20984439588E+02
 0.12914409173E+02 0.94973540581E+01 0.83964026950E+01 0.78803387286E+01 0.78806510160E+01
 0.83967125506E+01 0.94967680016E+01 0.12913383632E+02 0.20984777350E+02 0.34706310645E+02
 0.53151042797E+02 0.73391902113E+02 0.90996828190E+02 0.10131476380E+03 0.10131352565E+03
 0.11894483546E+03 0.10124581265E+03 0.77404445155E+02 0.53148787664E+02 0.32961238582E+02
 0.19164936539E+02 0.11837135290E+02 0.91557079249E+01 0.83083311716E+01 0.80179333198E+01
 0.83089321340E+01 0.91556090321E+01 0.11836425311E+02 0.19165754189E+02 0.32964420867E+02
 0.53151058795E+02 0.77401181079E+02 0.10123709569E+03 0.11893707817E+03 0.12550856699E+03
 0.13971033276E+03 0.12547653342E+03 0.10124693586E+03 0.73395250338E+02 0.47806203097E+02
 0.28281721365E+02 0.16161260275E+02 0.10539961497E+02 0.88223303181E+01 0.82273693144E+01
 0.82277609277E+01 0.88227395691E+01 0.10539580851E+02 0.16161085666E+02 0.28283066890E+02
 0.47807402726E+02 0.73391902000E+02 0.10123704866E+03 0.12546473447E+03 0.13970499489E+03
 0.12262348008E+03 0.11621931135E+03 0.98944822500E+02 0.75643929365E+02 0.51903583386E+02
 0.32133836545E+02 0.18644527039E+02 0.11517303841E+02 0.89330545711E+01 0.81044903755E+01
 0.78188399374E+01 0.81046309068E+01 0.89331739536E+01 0.11517280161E+02 0.18644420869E+02
 0.32133798921E+02 0.51903662530E+02 0.75644029250E+02 0.98944847563E+02 0.11621928465E+03
 0.11622336474E+03 0.11621922906E+03 0.10439789692E+03 0.84223834734E+02 0.60977193359E+02
 0.39656715099E+02 0.23576625635E+02 0.13876448244E+02 0.96117580700E+01 0.83112829721E+01
 0.77653100744E+01 0.77649780295E+01 0.83109438822E+01 0.96121454952E+01 0.13876798337E+02
 0.23575805103E+02 0.39655898763E+02 0.60979786180E+02 0.84231457871E+02 0.10440702274E+03
 0.98950902328E+02 0.10439751910E+03 0.98944838502E+02 0.84223913447E+02 0.64338668174E+02
 0.44096558415E+02 0.27363480916E+02 0.16165433580E+02 0.10472565360E+02 0.84945943248E+01
 0.77467780853E+01 0.74841330253E+01 0.77459890027E+01 0.84944265646E+01 0.10473246608E+02
 0.16165138190E+02 0.27361163149E+02 0.44094624465E+02 0.64340943926E+02 0.84230588194E+02
 0.75641380711E+02 0.84219318510E+02 0.84220210662E+02 0.75644080036E+02 0.60977168863E+02
 0.44096493427E+02 0.28783727604E+02 0.17576341740E+02 0.11217356658E+02 0.86693034040E+01
 0.77525775443E+01 0.72859596257E+01 0.72856577328E+01 0.77522161426E+01 0.86696670909E+01
 0.11218089253E+02 0.17575964242E+02 0.28781174655E+02 0.44092323231E+02 0.60973057546E+02
 0.51895231717E+02 0.60984426062E+02 0.64350109196E+02 0.60991113014E+02 0.51903594672E+02
 0.39656586770E+02 0.27363516528E+02 0.17576390443E+02 0.11512718517E+02 0.87921343599E+01
 0.77663966455E+01 0.71692037066E+01 0.69690295882E+01 0.71693441225E+01 0.77664711363E+01
 0.87925782477E+01 0.11514349611E+02 0.17578612780E+02 0.27363539198E+02 0.39651818668E+02
 0.32133035541E+02 0.39709352825E+02 0.44168494173E+02 0.44170776099E+02 0.39713393238E+02
 0.32133769957E+02 0.23576633047E+02 0.16165536402E+02 0.11217314108E+02 0.87921014655E+01
 0.77731014476E+01 0.71178664514E+01 0.67928130381E+01 0.67931721103E+01 0.71180924361E+01
 0.77723449403E+01 0.87918148680E+01 0.11219974412E+02 0.16170851343E+02 0.23580648578E+02
 0.18650475634E+02 0.23688502550E+02 0.27531855550E+02 0.28967794184E+02 0.27529520668E+02
 0.23683722783E+02 0.18644475995E+02 0.13876517549E+02 0.10472544344E+02 0.86692267476E+01
 0.77664441415E+01 0.71178867750E+01 0.67373658372E+01 0.66161522849E+01 0.67379793064E+01
 0.71173932327E+01 0.77640950880E+01 0.86669543763E+01 0.10473246608E+02 0.13880942609E+02
 0.11516901028E+02 0.14021616078E+02 0.16415530722E+02 0.17876613447E+02 0.17873984796E+02
 0.16409853607E+02 0.14017489644E+02 0.11517289554E+02 0.96117958227E+01 0.84945259156E+01
 0.77526070097E+01 0.71692557877E+01 0.67927547765E+01 0.66161365564E+01 0.66165955940E+01
 0.67935563570E+01 0.71689649896E+01 0.77499467371E+01 0.84898559248E+01 0.96076862673E+01
 0.89264306700E+01 0.97572992648E+01 0.10752882399E+02 0.11586990467E+02 0.11911966988E+02
 0.11585120780E+02 0.10752860810E+02 0.97616826066E+01 0.89331062839E+01 0.83112696062E+01
 0.77467461984E+01 0.72860165050E+01 0.69689877367E+01 0.67931339095E+01 0.67380543561E+01
 0.67935764178E+01 0.69707171176E+01 0.72883062713E+01 0.77466775216E+01 0.83068637872E+01
 0.81043015957E+01 0.84528930539E+01 0.87713295096E+01 0.90545052257E+01 0.92378640156E+01
 0.92386328279E+01 0.90572263616E+01 0.87758901333E+01 0.84569219949E+01 0.81045387877E+01
 0.77652536057E+01 0.74841583818E+01 0.72856871939E+01 0.71693056096E+01 0.71181519099E+01
 0.71174323828E+01 0.71688743955E+01 0.72882788530E+01 0.74894121091E+01 0.77693874356E+01
 0.78248947021E+01 0.79124851990E+01 0.80233793854E+01 0.81380479217E+01 0.82272008677E+01
 0.82620514334E+01 0.82295168821E+01 0.81403010076E+01 0.80227716603E+01 0.79081681980E+01
 0.78188271192E+01 0.77649522406E+01 0.77460576795E+01 0.77521999307E+01 0.77664441415E+01
 0.77723660141E+01 0.77640205972E+01 0.77499010598E+01 0.77467780853E+01 0.77694181154E+01
 0.81041969553E+01 0.79124583745E+01 0.77644490039E+01 0.76763081781E+01 0.76412536533E+01
 0.76353078009E+01 0.76359682928E+01 0.76415681728E+01 0.76736642415E+01 0.77592745774E+01
 0.79084895642E+01 0.81045746787E+01 0.83109761861E+01 0.84944402028E+01 0.86695843440E+01
 0.87925714251E+01 0.87918409398E+01 0.86669482857E+01 0.84899379722E+01 0.83069094570E+01
 0.89263477367E+01 0.84528582600E+01 0.80234799302E+01 0.76763238702E+01 0.74462464134E+01
 0.73263694544E+01 0.72909874420E+01 0.73260349395E+01 0.74445810876E+01 0.76739576616E+01
 0.80234237299E+01 0.84572513060E+01 0.89331427332E+01 0.96121749557E+01 0.10473196414E+02
 0.11218077488E+02 0.11514442496E+02 0.11220005197E+02 0.10473217429E+02 0.96076779750E+01
 0.11516936034E+02 0.97573204264E+01 0.87714061529E+01 0.81380615406E+01 0.76411675331E+01
 0.73263705730E+01 0.71819179918E+01 0.71815102047E+01 0.73256671319E+01 0.76414937853E+01
 0.81406408691E+01 0.87759286299E+01 0.97613147990E+01 0.11517300880E+02 0.13876821180E+02
 0.16165140830E+02 0.17576022635E+02 0.17578622471E+02 0.16170751160E+02 0.13880896147E+02
 0.18650581804E+02 0.14021666472E+02 0.10752842641E+02 0.90544749589E+01 0.82271389186E+01
 0.76353229015E+01 0.72910524585E+01 0.71814922100E+01 0.72903353724E+01 0.76357328469E+01
 0.82295168821E+01 0.90568390763E+01 0.10752172291E+02 0.14017168486E+02 0.18644475995E+02
 0.23575811693E+02 0.27361140480E+02 0.28781137040E+02 0.27363480916E+02 0.23580647756E+02
 0.32133091211E+02 0.23688490582E+02 0.16415425098E+02 0.11586949692E+02 0.92379050255E+01
 0.82620860388E+01 0.76360102618E+01 0.73259930461E+01 0.73256241198E+01 0.76357597153E+01
 0.82628247140E+01 0.92382168044E+01 0.11584375445E+02 0.16410219809E+02 0.23684532294E+02
 0.32133788002E+02 0.39655841436E+02 0.44094590223E+02 0.44092353977E+02 0.39651889669E+02
 0.51895190494E+02 0.39709259855E+02 0.27531806141E+02 0.17876640086E+02 0.11912060339E+02
 0.92386503601E+01 0.82294770464E+01 0.76415353407E+01 0.74445603552E+01 0.76415470734E+01
 0.82295389955E+01 0.92381933267E+01 0.11910317379E+02 0.17874363929E+02 0.27531858796E+02
 0.39714156617E+02 0.51903632592E+02 0.60979817402E+02 0.64341006302E+02 0.60973113264E+02
 0.75641309768E+02 0.60984359420E+02 0.44168543221E+02 0.28967892166E+02 0.17874020489E+02
 0.11585075430E+02 0.90571525297E+01 0.81403133296E+01 0.76737042736E+01 0.76739820016E+01
 0.81406395722E+01 0.90567955112E+01 0.11584370870E+02 0.17874372983E+02 0.28970349604E+02
 0.44172632316E+02 0.60988493417E+02 0.75644108978E+02 0.84231482816E+02 0.84230534426E+02
 0.98950877264E+02 0.84219385142E+02 0.64350184110E+02 0.44170839249E+02 0.27529468014E+02
 0.16409764139E+02 0.10752842641E+02 0.87759539699E+01 0.80228278605E+01 0.77592399591E+01
 0.80233793854E+01 0.87759158231E+01 0.10752193880E+02 0.16410235965E+02 0.27531855550E+02
 0.44172646418E+02 0.64347733147E+02 0.84212646499E+02 0.98944838502E+02 0.10440689264E+03
 0.11622337778E+03 0.10439767493E+03 0.84220234341E+02 0.60991045442E+02 0.39713326281E+02
 0.23683678822E+02 0.14017542072E+02 0.97617546602E+01 0.84569246861E+01 0.79080985282E+01
 0.79084467190E+01 0.84572887911E+01 0.97613656909E+01 0.14017170519E+02 0.23684500300E+02
 0.39714182630E+02 0.60988492489E+02 0.84212603545E+02 0.10438850290E+03 0.11621921539E+03
 0.90229738233E+02 0.85507244968E+02 0.72748738522E+02 0.55526614025E+02 0.38067679154E+02
 0.23789785646E+02 0.14439001359E+02 0.98570614036E+01 0.82885748734E+01 0.75898772923E+01
 0.73474026061E+01 0.75899938810E+01 0.82886748429E+01 0.98570425397E+01 0.14438910347E+02
 0.23789745908E+02 0.38067734278E+02 0.55526690772E+02 0.72748760007E+02 0.85507226003E+02
 0.85509827716E+02 0.85507173224E+02 0.76765295484E+02 0.61830715596E+02 0.44662206781E+02
 0.29102982593E+02 0.17715276483E+02 0.11242467137E+02 0.86421303610E+01 0.77220347048E+01
 0.72563001865E+01 0.72560299580E+01 0.77217578286E+01 0.86425043726E+01 0.11243009037E+02
 0.17715055221E+02 0.29102562841E+02 0.44663790619E+02 0.61835500704E+02 0.76771113995E+02
 0.72752633794E+02 0.76791764683E+02 0.72748750773E+02 0.61830783399E+02 0.47113062258E+02
 0.32269361116E+02 0.20287180536E+02 0.12647274250E+02 0.90723515371E+01 0.78388251328E+01
 0.72008176519E+01 0.69828066169E+01 0.72001547787E+01 0.78386265374E+01 0.90729256610E+01
 0.12647348903E+02 0.20285846004E+02 0.32268062310E+02 0.47114373777E+02 0.61834980558E+02
 0.55525059991E+02 0.61897790009E+02 0.61898335737E+02 0.55526743775E+02 0.44662187304E+02
 0.32269305646E+02 0.21261285714E+02 0.13534671022E+02 0.94598447038E+01 0.79214779999E+01
 0.71744106013E+01 0.67888523041E+01 0.67886109990E+01 0.71740615854E+01 0.79215742803E+01
 0.94601854080E+01 0.13534307647E+02 0.21259542336E+02 0.32266571233E+02 0.44659558126E+02
 0.38062476976E+02 0.44780955707E+02 0.47277664361E+02 0.44785166461E+02 0.38067690501E+02
 0.29102873132E+02 0.20287209797E+02 0.13534712437E+02 0.96174584704E+01 0.79686411203E+01
 0.71657699300E+01 0.66719281170E+01 0.65106402464E+01 0.66721067294E+01 0.71658320147E+01
 0.79687469667E+01 0.96182144351E+01 0.13535938428E+02 0.20287229519E+02 0.29099961128E+02
 0.23789379555E+02 0.29281833294E+02 0.32547964631E+02 0.32549440800E+02 0.29284405831E+02
 0.23789728963E+02 0.17715281872E+02 0.12647361937E+02 0.94598101685E+01 0.79686136123E+01
 0.71643466482E+01 0.66189392807E+01 0.63569975313E+01 0.63573479719E+01 0.66193178052E+01
 0.71639827878E+01 0.79683806142E+01 0.94614498363E+01 0.12650837115E+02 0.17718023287E+02
 0.14442784134E+02 0.17943580109E+02 0.20670682509E+02 0.21699362835E+02 0.20669321579E+02
 0.17940655249E+02 0.14438957952E+02 0.11242526784E+02 0.90723350529E+01 0.79214131643E+01
 0.71658080899E+01 0.66189555076E+01 0.63086872009E+01 0.62113400819E+01 0.63092022978E+01
 0.66188046637E+01 0.71644485007E+01 0.79200902884E+01 0.90729256610E+01 0.11245463961E+02
 0.98566752638E+01 0.11487148641E+02 0.13091277916E+02 0.14088124129E+02 0.14086501019E+02
 0.13087802379E+02 0.11484698562E+02 0.98570498288E+01 0.86421620464E+01 0.78387657249E+01
 0.71744334868E+01 0.66719709589E+01 0.63569495885E+01 0.62113276849E+01 0.62115605688E+01
 0.63573470486E+01 0.66717394535E+01 0.71727980805E+01 0.78358719547E+01 0.86395353839E+01
 0.82842229321E+01 0.88748869783E+01 0.95213440709E+01 0.10059402840E+02 0.10270019958E+02
 0.10058149863E+02 0.95213248493E+01 0.88777921985E+01 0.82886171729E+01 0.77220211252E+01
 0.72007905483E+01 0.67889015801E+01 0.65106064431E+01 0.63573168644E+01 0.63092653247E+01
 0.63573638839E+01 0.65114456367E+01 0.67902417799E+01 0.72007329025E+01 0.77191561158E+01
 0.75897289423E+01 0.79420684865E+01 0.82667146777E+01 0.85147873889E+01 0.86541257280E+01
 0.86545047396E+01 0.85162946257E+01 0.82694708793E+01 0.79446278755E+01 0.75899176863E+01
 0.72562541815E+01 0.69828314004E+01 0.67886366414E+01 0.66720732961E+01 0.66193672353E+01
 0.66188378668E+01 0.66716631783E+01 0.67902181462E+01 0.69861934142E+01 0.72588966095E+01
 0.73512763931E+01 0.74743633134E+01 0.76156512487E+01 0.77521773050E+01 0.78534277777E+01
 0.78916009955E+01 0.78547731116E+01 0.77534378828E+01 0.76151409831E+01 0.74715697334E+01
 0.73473939167E+01 0.72560105569E+01 0.72002124245E+01 0.71740448967E+01 0.71658080899E+01
 0.71640016098E+01 0.71643864160E+01 0.71727585062E+01 0.72008176519E+01 0.72589232135E+01
 0.75896401479E+01 0.74743396717E+01 0.73952671016E+01 0.73598462651E+01 0.73576454051E+01
 0.73663502091E+01 0.73668302743E+01 0.73579552719E+01 0.73582121859E+01 0.73919596784E+01
 0.74718281920E+01 0.75899454806E+01 0.77217839807E+01 0.78386355935E+01 0.79215035198E+01
 0.79687428204E+01 0.79684039758E+01 0.79200843635E+01 0.78359404186E+01 0.77191958475E+01
 0.82841529971E+01 0.79420374523E+01 0.76157367613E+01 0.73598606291E+01 0.71956954094E+01
 0.71130866975E+01 0.70894534336E+01 0.71131196642E+01 0.71948971419E+01 0.73584493303E+01
 0.76156890724E+01 0.79448928142E+01 0.82886472074E+01 0.86425293223E+01 0.90728831422E+01
 0.94601765210E+01 0.96182938952E+01 0.94614754846E+01 0.90728996264E+01 0.86395286482E+01
 0.98567059611E+01 0.88749045607E+01 0.82667796889E+01 0.77521907955E+01 0.73575727930E+01
 0.71130871448E+01 0.70025006390E+01 0.70023054314E+01 0.71127642216E+01 0.73578369739E+01
 0.77537720112E+01 0.82695613831E+01 0.88774367560E+01 0.98570616621E+01 0.11243029015E+02
 0.12647351027E+02 0.13534356994E+02 0.13535946360E+02 0.12650751551E+02 0.11245424292E+02
 0.14442875146E+02 0.11487192164E+02 0.95213097888E+01 0.85147624702E+01 0.78533756768E+01
 0.73663619700E+01 0.70895078311E+01 0.70022898372E+01 0.70889053443E+01 0.73664484892E+01
 0.78547731116E+01 0.85161743276E+01 0.95207467255E+01 0.11484186646E+02 0.14438957952E+02
 0.17715060160E+02 0.20285826283E+02 0.21259510293E+02 0.20287180536E+02 0.17718022837E+02
 0.23789426904E+02 0.17943570271E+02 0.13091187480E+02 0.10059367454E+02 0.86541606007E+01
 0.78916295794E+01 0.73668653528E+01 0.71130838453E+01 0.71127279554E+01 0.73664718067E+01
 0.78919810517E+01 0.86544109363E+01 0.10057791121E+02 0.13087793845E+02 0.17940867203E+02
 0.23789736574E+02 0.29102514390E+02 0.32268033608E+02 0.32266597999E+02 0.29100022138E+02
 0.38062441307E+02 0.29281753749E+02 0.20670640258E+02 0.14088145877E+02 0.10270098934E+02
 0.86545193427E+01 0.78547397367E+01 0.73579282355E+01 0.71948794389E+01 0.73578825496E+01
 0.78547918376E+01 0.86543906667E+01 0.10269234022E+02 0.14086868295E+02 0.20670685639E+02
 0.29284772184E+02 0.38067709955E+02 0.44663818085E+02 0.47114426318E+02 0.44659605068E+02
 0.55524999046E+02 0.44780899275E+02 0.32548006987E+02 0.21699446141E+02 0.14086530898E+02
 0.10058111217E+02 0.85162328084E+01 0.77534503319E+01 0.73582456501E+01 0.73584684306E+01
 0.77537709698E+01 0.85161374291E+01 0.10057787861E+02 0.14086876426E+02 0.21701124603E+02
 0.32550689427E+02 0.44783551482E+02 0.55526759577E+02 0.61835520237E+02 0.61834932288E+02
 0.72752612309E+02 0.61897849111E+02 0.47277729683E+02 0.32549494701E+02 0.20669276198E+02
 0.13087726046E+02 0.95213097888E+01 0.82695269390E+01 0.76151886720E+01 0.73919272645E+01
 0.76156512487E+01 0.82695524316E+01 0.95207659471E+01 0.13087807947E+02 0.20670682509E+02
 0.32550700971E+02 0.47276280847E+02 0.61893602264E+02 0.72748750773E+02 0.76770999889E+02
 0.85509838912E+02 0.76791900802E+02 0.61898357860E+02 0.44785108197E+02 0.29284347693E+02
 0.17940617586E+02 0.11484742861E+02 0.88778539465E+01 0.79446313955E+01 0.74715085841E+01
 0.74717906843E+01 0.79449273685E+01 0.88774809216E+01 0.11484187422E+02 0.17940839377E+02
 0.29284793590E+02 0.44783549650E+02 0.61893565285E+02 0.76786048881E+02 0.85507165455E+02
 0.58663359609E+02 0.55573429417E+02 0.47239092945E+02 0.36063121749E+02 0.24939018435E+02
 0.16199807542E+02 0.10893781294E+02 0.85659026183E+01 0.76292799103E+01 0.70637952951E+01
 0.68751841027E+01 0.70638826833E+01 0.76293535510E+01 0.85658850446E+01 0.10893708425E+02
 0.16199773963E+02 0.24939058197E+02 0.36063179673E+02 0.47239110147E+02 0.55573415956E+02
 0.55574679217E+02 0.55573370864E+02 0.49843052457E+02 0.40095531708E+02 0.29032956263E+02
 0.19301282470E+02 0.12585608761E+02 0.91339022665E+01 0.78202909029E+01 0.71073663217E+01