   2   2   0   0
  0.9349063E+01  0.2330000E-09  0.2330000E-09  0.3977000E-09  0.5000000E-15
  1.000000000000000E-004
  CAR 
 unknown system                          
     75.93540299     -5.17386059  301      7.88933847      1.00000000
     -5.174  0.0000E+00  0.0000E+00
     -4.903  0.0000E+00  0.0000E+00
     -4.633  0.0000E+00  0.0000E+00
     -4.363  0.0000E+00  0.0000E+00
     -4.092  0.0000E+00  0.0000E+00
     -3.822  0.0000E+00  0.0000E+00
     -3.552  0.0000E+00  0.0000E+00
     -3.281 -0.1568E-36 -0.4238E-37
     -3.011 -0.7333E-27 -0.1982E-27
     -2.741 -0.8614E-19 -0.2329E-19
     -2.470 -0.2421E-12 -0.6545E-13
     -2.200 -0.1694E-07 -0.4581E-08
     -1.929 -0.2722E-04 -0.7365E-05
     -1.659 -0.4158E-03 -0.1198E-03
     -1.389  0.8334E-02  0.2134E-02
     -1.118  0.4979E-01  0.1560E-01
     -0.848  0.9214E-01  0.4051E-01
     -0.578  0.5856E-01  0.5634E-01
     -0.307  0.1392E+00  0.9399E-01
     -0.037  0.1716E+00  0.1404E+00
      0.233  0.1706E+00  0.1865E+00
      0.504  0.8998E-01  0.2108E+00
      0.774  0.2148E+00  0.2689E+00
      1.045  0.3138E+00  0.3538E+00
      1.315  0.2577E+00  0.4234E+00
      1.585  0.3053E+00  0.5060E+00
      1.856  0.2058E+00  0.5616E+00
      2.126  0.4866E+00  0.6932E+00
      2.396  0.9478E+00  0.9494E+00
      2.667  0.1490E+01  0.1352E+01
      2.937  0.1651E+01  0.1799E+01
      3.207  0.2764E+01  0.2546E+01
      3.478  0.2126E+01  0.3121E+01
      3.748  0.2902E+01  0.3905E+01
      4.019  0.1873E+01  0.4411E+01
      4.289  0.2729E+01  0.5149E+01
      4.559  0.2819E+01  0.5912E+01
      4.830  0.2902E+01  0.6696E+01
      5.100  0.2465E+01  0.7363E+01
      5.370  0.1798E+01  0.7849E+01
      5.641  0.2898E+01  0.8632E+01
      5.911  0.3668E+01  0.9624E+01
      6.181  0.3535E+01  0.1058E+02
      6.452  0.3712E+01  0.1158E+02
      6.722  0.3905E+01  0.1264E+02
      6.993  0.3469E+01  0.1358E+02
      7.263  0.2597E+01  0.1428E+02
      7.533  0.2597E+01  0.1498E+02
      7.804  0.2959E+01  0.1578E+02
      8.074  0.2163E+01  0.1637E+02
      8.344  0.2491E+01  0.1704E+02
      8.615  0.4253E+01  0.1819E+02
      8.885  0.4747E+01  0.1947E+02
      9.155  0.4602E+01  0.2072E+02
      9.426  0.1817E+01  0.2121E+02
      9.696  0.1614E+00  0.2125E+02
      9.967  0.2195E+00  0.2131E+02
     10.237  0.1065E+01  0.2160E+02
     10.507  0.7204E+00  0.2179E+02
     10.778  0.3485E+00  0.2189E+02
     11.048  0.5706E+00  0.2204E+02
     11.318  0.5396E+00  0.2219E+02
     11.589  0.3014E+00  0.2227E+02
     11.859  0.1764E+00  0.2232E+02
     12.129  0.7807E+00  0.2253E+02
     12.400  0.6342E+00  0.2270E+02
     12.670  0.4043E+00  0.2281E+02
     12.941  0.2372E+00  0.2287E+02
     13.211  0.3832E+00  0.2298E+02
     13.481  0.4195E+00  0.2309E+02
     13.752  0.4771E+00  0.2322E+02
     14.022  0.2959E+00  0.2330E+02
     14.292  0.2682E+00  0.2337E+02
     14.563  0.2887E+00  0.2345E+02
     14.833  0.3721E+00  0.2355E+02
     15.103  0.3430E+00  0.2364E+02
     15.374  0.6095E+00  0.2381E+02
     15.644  0.2085E+00  0.2386E+02
     15.915  0.9046E-01  0.2389E+02
     16.185  0.9307E-01  0.2391E+02
     16.455  0.1597E+00  0.2396E+02
     16.726  0.1605E+00  0.2400E+02
     16.996  0.1983E+00  0.2405E+02
     17.266  0.2433E+00  0.2412E+02
     17.537  0.2963E+00  0.2420E+02
     17.807  0.3216E+00  0.2429E+02
     18.077  0.3572E+00  0.2438E+02
     18.348  0.6950E+00  0.2457E+02
     18.618  0.9318E+00  0.2482E+02
     18.889  0.7214E+00  0.2502E+02
     19.159  0.7380E+00  0.2522E+02
     19.429  0.2858E+00  0.2530E+02
     19.700  0.7092E+00  0.2549E+02
     19.970  0.6095E+00  0.2565E+02
     20.240  0.8443E+00  0.2588E+02
     20.511  0.7676E+00  0.2609E+02
     20.781  0.5159E+00  0.2623E+02
     21.051  0.6617E+00  0.2641E+02
     21.322  0.7475E+00  0.2661E+02
     21.592  0.8052E+00  0.2683E+02
     21.863  0.5614E+00  0.2698E+02
     22.133  0.6971E+00  0.2717E+02
     22.403  0.6170E+00  0.2733E+02
     22.674  0.6445E+00  0.2751E+02
     22.944  0.5977E+00  0.2767E+02
     23.214  0.3139E+00  0.2775E+02
     23.485  0.6724E+00  0.2794E+02
     23.755  0.4633E+00  0.2806E+02
     24.025  0.6861E+00  0.2825E+02
     24.296  0.7222E+00  0.2844E+02
     24.566  0.4933E+00  0.2857E+02
     24.837  0.6857E+00  0.2876E+02
     25.107  0.8759E+00  0.2900E+02
     25.377  0.9077E+00  0.2924E+02
     25.648  0.6448E+00  0.2942E+02
     25.918  0.9706E+00  0.2968E+02
     26.188  0.9019E+00  0.2992E+02
     26.459  0.6822E+00  0.3011E+02
     26.729  0.7898E+00  0.3032E+02
     26.999  0.1009E+01  0.3059E+02
     27.270  0.5697E+00  0.3075E+02
     27.540  0.7792E+00  0.3096E+02
     27.811  0.1346E+01  0.3132E+02
     28.081  0.1106E+01  0.3162E+02
     28.351  0.6072E+00  0.3179E+02
     28.622  0.8683E+00  0.3202E+02
     28.892  0.6278E+00  0.3219E+02
     29.162  0.7225E+00  0.3239E+02
     29.433  0.1274E+01  0.3273E+02
     29.703  0.8772E+00  0.3297E+02
     29.973  0.7652E+00  0.3317E+02
     30.244  0.7112E+00  0.3337E+02
     30.514  0.9953E+00  0.3364E+02
     30.785  0.1031E+01  0.3391E+02
     31.055  0.8721E+00  0.3415E+02
     31.325  0.4192E+00  0.3426E+02
     31.596  0.4244E+00  0.3438E+02
     31.866  0.7529E+00  0.3458E+02
     32.136  0.1153E+01  0.3489E+02
     32.407  0.6277E+00  0.3506E+02
     32.677  0.5775E+00  0.3522E+02
     32.947  0.7569E+00  0.3542E+02
     33.218  0.7903E+00  0.3564E+02
     33.488  0.7524E+00  0.3584E+02
     33.759  0.5298E+00  0.3598E+02
     34.029  0.5524E+00  0.3613E+02
     34.299  0.4828E+00  0.3626E+02
     34.570  0.7421E+00  0.3646E+02
     34.840  0.9856E+00  0.3673E+02
     35.110  0.6998E+00  0.3692E+02
     35.381  0.9479E+00  0.3718E+02
     35.651  0.8254E+00  0.3740E+02
     35.921  0.8502E+00  0.3763E+02
     36.192  0.6521E+00  0.3781E+02
     36.462  0.8194E+00  0.3803E+02
     36.733  0.9469E+00  0.3828E+02
     37.003  0.8955E+00  0.3853E+02
     37.273  0.1090E+01  0.3882E+02
     37.544  0.6777E+00  0.3900E+02
     37.814  0.6874E+00  0.3919E+02
     38.084  0.9459E+00  0.3944E+02
     38.355  0.1065E+01  0.3973E+02
     38.625  0.1001E+01  0.4000E+02
     38.896  0.6472E+00  0.4018E+02
     39.166  0.8432E+00  0.4041E+02
     39.436  0.7109E+00  0.4060E+02
     39.707  0.9487E+00  0.4086E+02
     39.977  0.6698E+00  0.4104E+02
     40.247  0.5336E+00  0.4118E+02
     40.518  0.8745E+00  0.4142E+02
     40.788  0.9437E+00  0.4167E+02
     41.058  0.7944E+00  0.4189E+02
     41.329  0.9503E+00  0.4214E+02
     41.599  0.9449E+00  0.4240E+02
     41.870  0.7029E+00  0.4259E+02
     42.140  0.8741E+00  0.4283E+02
     42.410  0.7906E+00  0.4304E+02
     42.681  0.1305E+01  0.4339E+02
     42.951  0.7504E+00  0.4360E+02
     43.221  0.5505E+00  0.4374E+02
     43.492  0.5710E+00  0.4390E+02
     43.762  0.7504E+00  0.4410E+02
     44.032  0.7347E+00  0.4430E+02
     44.303  0.8821E+00  0.4454E+02
     44.573  0.9137E+00  0.4479E+02
     44.844  0.1309E+01  0.4514E+02
     45.114  0.1221E+01  0.4547E+02
     45.384  0.1036E+01  0.4575E+02
     45.655  0.8640E+00  0.4598E+02
     45.925  0.9207E+00  0.4623E+02
     46.195  0.7548E+00  0.4644E+02
     46.466  0.1118E+01  0.4674E+02
     46.736  0.1374E+01  0.4711E+02
     47.006  0.1033E+01  0.4739E+02
     47.277  0.7428E+00  0.4759E+02
     47.547  0.1390E+01  0.4797E+02
     47.818  0.1232E+01  0.4830E+02
     48.088  0.8550E+00  0.4853E+02
     48.358  0.7825E+00  0.4874E+02
     48.629  0.8067E+00  0.4896E+02
     48.899  0.5580E+00  0.4911E+02
     49.169  0.6913E+00  0.4930E+02
     49.440  0.1092E+01  0.4959E+02
     49.710  0.4947E+00  0.4973E+02
     49.980  0.5116E+00  0.4986E+02
     50.251  0.1085E+01  0.5016E+02
     50.521  0.8656E+00  0.5039E+02
     50.792  0.1432E+01  0.5078E+02
     51.062  0.8066E+00  0.5100E+02
     51.332  0.8295E+00  0.5122E+02
     51.603  0.1350E+01  0.5159E+02
     51.873  0.1574E+01  0.5201E+02
     52.143  0.9085E+00  0.5226E+02
     52.414  0.8522E+00  0.5249E+02
     52.684  0.6788E+00  0.5267E+02
     52.954  0.5958E+00  0.5283E+02
     53.225  0.1134E+01  0.5314E+02
     53.495  0.1296E+01  0.5349E+02
     53.766  0.1179E+01  0.5381E+02
     54.036  0.1253E+01  0.5415E+02
     54.306  0.8618E+00  0.5438E+02
     54.577  0.1355E+01  0.5475E+02
     54.847  0.1002E+01  0.5502E+02
     55.117  0.1140E+01  0.5533E+02
     55.388  0.1442E+01  0.5572E+02
     55.658  0.1044E+01  0.5600E+02
     55.928  0.9979E+00  0.5627E+02
     56.199  0.1204E+01  0.5659E+02
     56.469  0.1088E+01  0.5689E+02
     56.740  0.1262E+01  0.5723E+02
     57.010  0.1001E+01  0.5750E+02
     57.280  0.1028E+01  0.5778E+02
     57.551  0.1144E+01  0.5809E+02
     57.821  0.1533E+01  0.5850E+02
     58.091  0.1638E+01  0.5894E+02
     58.362  0.8764E+00  0.5918E+02
     58.632  0.1104E+01  0.5948E+02
     58.902  0.1682E+01  0.5993E+02
     59.173  0.1561E+01  0.6036E+02
     59.443  0.1557E+01  0.6078E+02
     59.714  0.1615E+01  0.6121E+02
     59.984  0.2026E+01  0.6176E+02
     60.254  0.1718E+01  0.6223E+02
     60.525  0.1340E+01  0.6259E+02
     60.795  0.1450E+01  0.6298E+02
     61.065  0.1794E+01  0.6346E+02
     61.336  0.2052E+01  0.6402E+02
     61.606  0.2662E+01  0.6474E+02
     61.876  0.2424E+01  0.6539E+02
     62.147  0.2473E+01  0.6606E+02
     62.417  0.1981E+01  0.6660E+02
     62.688  0.1853E+01  0.6710E+02
     62.958  0.1403E+01  0.6748E+02
     63.228  0.1092E+01  0.6777E+02
     63.499  0.1210E+01  0.6810E+02
     63.769  0.2135E+01  0.6868E+02
     64.039  0.1826E+01  0.6917E+02
     64.310  0.1508E+01  0.6958E+02
     64.580  0.1668E+01  0.7003E+02
     64.850  0.1315E+01  0.7039E+02
     65.121  0.1302E+01  0.7074E+02
     65.391  0.1897E+01  0.7125E+02
     65.662  0.1837E+01  0.7175E+02
     65.932  0.8959E+00  0.7199E+02
     66.202  0.9949E+00  0.7226E+02
     66.473  0.1509E+01  0.7267E+02
     66.743  0.1592E+01  0.7310E+02
     67.013  0.2394E+01  0.7374E+02
     67.284  0.1303E+01  0.7410E+02
     67.554  0.1768E+01  0.7457E+02
     67.824  0.1509E+01  0.7498E+02
     68.095  0.1458E+01  0.7538E+02
     68.365  0.1549E+01  0.7580E+02
     68.636  0.1454E+01  0.7619E+02
     68.906  0.1600E+01  0.7662E+02
     69.176  0.1772E+01  0.7710E+02
     69.447  0.1279E+01  0.7745E+02
     69.717  0.1005E+01  0.7772E+02
     69.987  0.1840E+01  0.7822E+02
     70.258  0.1547E+01  0.7863E+02
     70.528  0.1267E+01  0.7898E+02
     70.798  0.7578E+00  0.7918E+02
     71.069  0.1168E+01  0.7950E+02
     71.339  0.1098E+01  0.7979E+02
     71.610  0.5182E+00  0.7993E+02
     71.880  0.1763E+00  0.7998E+02
     72.150  0.1177E-01  0.7998E+02
     72.421  0.5692E-01  0.8000E+02
     72.691 -0.8035E-05  0.8000E+02
     72.961 -0.2532E-03  0.8000E+02
     73.232 -0.1888E-06  0.8000E+02
     73.502 -0.2842E-11  0.8000E+02
     73.772  0.0000E+00  0.8000E+02
     74.043  0.0000E+00  0.8000E+02
     74.313  0.0000E+00  0.8000E+02
     74.584  0.0000E+00  0.8000E+02
     74.854  0.0000E+00  0.8000E+02
     75.124  0.0000E+00  0.8000E+02
     75.395  0.0000E+00  0.8000E+02
     75.665  0.0000E+00  0.8000E+02
     75.935  0.0000E+00  0.8000E+02
