<?xml version="1.0" encoding="ISO-8859-1"?>
<modeling>
 <generator>
  <i name="program" type="string">vasp </i>
  <i name="version" type="string">6.2.0  </i>
  <i name="subversion" type="string">18Jan21 (build Mar 17 2021 09:06:54) complex                          serial </i>
  <i name="platform" type="string">LinuxIFC </i>
  <i name="date" type="string">2021 09 09 </i>
  <i name="time" type="string">12:03:52 </i>
 </generator>
 <incar>
  <i type="string" name="PREC">normal</i>
  <i type="int" name="ICHARG">     1</i>
  <i type="int" name="IBRION">     1</i>
  <i name="EDIFF">      0.00000100</i>
  <i type="int" name="NSW">     0</i>
  <i type="int" name="ISIF">     2</i>
  <i name="ENCUT">    280.00000000</i>
  <i type="int" name="NBANDS">    40</i>
  <i type="int" name="ISMEAR">     1</i>
  <i name="SIGMA">      0.20000000</i>
  <i type="logical" name="LCHARG"> T  </i>
  <i type="int" name="KPAR">     1</i>
  <i type="int" name="NCORE">     1</i>
  <i type="string" name="GGA">PE</i>
 </incar>
 <primitive_cell>
  <structure name="primitive_cell" >
   <crystal>
    <varray name="basis" >
     <v>       2.33000000       0.00000000       0.00000000 </v>
     <v>      -1.16500000       2.01783919       0.00000000 </v>
     <v>       0.00000000       0.00000000       3.97700000 </v>
    </varray>
    <i name="volume">     18.69812526 </i>
    <varray name="rec_basis" >
     <v>       0.42918455       0.24778982       0.00000000 </v>
     <v>       0.00000000       0.49557963       0.00000000 </v>
     <v>       0.00000000       0.00000000       0.25144581 </v>
    </varray>
   </crystal>
   <varray name="positions" >
    <v>       0.00000000       0.00000000       0.00000000 </v>
    <v>       0.33333333       0.66666667       0.50000000 </v>
   </varray>
  </structure>
  <varray name="primitive_index" >
   <v type="int" >        1 </v>
   <v type="int" >        2 </v>
  </varray>
 </primitive_cell>
 <kpoints>
  <generation param="Monkhorst-Pack">
   <v type="int" name="divisions">      11       11       11 </v>
   <v name="usershift">      0.00000000       0.00000000       0.00000000 </v>
   <v name="genvec1">      0.09090909      -0.00000000       0.00000000 </v>
   <v name="genvec2">      0.00000000       0.09090909       0.00000000 </v>
   <v name="genvec3">      0.00000000       0.00000000       0.09090909 </v>
   <v name="shift">      0.00000000       0.00000000       0.00000000 </v>
  </generation>
  <varray name="kpointlist" >
   <v>       0.00000000       0.00000000       0.00000000 </v>
   <v>       0.09090909       0.00000000       0.00000000 </v>
   <v>       0.18181818      -0.00000000       0.00000000 </v>
   <v>       0.27272727      -0.00000000       0.00000000 </v>
   <v>       0.36363636      -0.00000000       0.00000000 </v>
   <v>       0.45454545      -0.00000000       0.00000000 </v>
   <v>       0.09090909       0.09090909       0.00000000 </v>
   <v>       0.18181818       0.09090909       0.00000000 </v>
   <v>       0.27272727       0.09090909       0.00000000 </v>
   <v>       0.36363636       0.09090909       0.00000000 </v>
   <v>       0.45454545       0.09090909       0.00000000 </v>
   <v>       0.18181818       0.18181818       0.00000000 </v>
   <v>       0.27272727       0.18181818       0.00000000 </v>
   <v>       0.36363636       0.18181818       0.00000000 </v>
   <v>       0.27272727       0.27272727       0.00000000 </v>
   <v>       0.36363636       0.27272727       0.00000000 </v>
   <v>       0.00000000       0.00000000       0.09090909 </v>
   <v>       0.09090909       0.00000000       0.09090909 </v>
   <v>       0.18181818      -0.00000000       0.09090909 </v>
   <v>       0.27272727      -0.00000000       0.09090909 </v>
   <v>       0.36363636      -0.00000000       0.09090909 </v>
   <v>       0.45454545      -0.00000000       0.09090909 </v>
   <v>       0.09090909       0.09090909       0.09090909 </v>
   <v>       0.18181818       0.09090909       0.09090909 </v>
   <v>       0.27272727       0.09090909       0.09090909 </v>
   <v>       0.36363636       0.09090909       0.09090909 </v>
   <v>       0.45454545       0.09090909       0.09090909 </v>
   <v>       0.18181818       0.18181818       0.09090909 </v>
   <v>       0.27272727       0.18181818       0.09090909 </v>
   <v>       0.36363636       0.18181818       0.09090909 </v>
   <v>       0.27272727       0.27272727       0.09090909 </v>
   <v>       0.36363636       0.27272727       0.09090909 </v>
   <v>       0.00000000       0.00000000       0.18181818 </v>
   <v>       0.09090909       0.00000000       0.18181818 </v>
   <v>       0.18181818      -0.00000000       0.18181818 </v>
   <v>       0.27272727      -0.00000000       0.18181818 </v>
   <v>       0.36363636      -0.00000000       0.18181818 </v>
   <v>       0.45454545      -0.00000000       0.18181818 </v>
   <v>       0.09090909       0.09090909       0.18181818 </v>
   <v>       0.18181818       0.09090909       0.18181818 </v>
   <v>       0.27272727       0.09090909       0.18181818 </v>
   <v>       0.36363636       0.09090909       0.18181818 </v>
   <v>       0.45454545       0.09090909       0.18181818 </v>
   <v>       0.18181818       0.18181818       0.18181818 </v>
   <v>       0.27272727       0.18181818       0.18181818 </v>
   <v>       0.36363636       0.18181818       0.18181818 </v>
   <v>       0.27272727       0.27272727       0.18181818 </v>
   <v>       0.36363636       0.27272727       0.18181818 </v>
   <v>       0.00000000       0.00000000       0.27272727 </v>
   <v>       0.09090909       0.00000000       0.27272727 </v>
   <v>       0.18181818      -0.00000000       0.27272727 </v>
   <v>       0.27272727      -0.00000000       0.27272727 </v>
   <v>       0.36363636      -0.00000000       0.27272727 </v>
   <v>       0.45454545      -0.00000000       0.27272727 </v>
   <v>       0.09090909       0.09090909       0.27272727 </v>
   <v>       0.18181818       0.09090909       0.27272727 </v>
   <v>       0.27272727       0.09090909       0.27272727 </v>
   <v>       0.36363636       0.09090909       0.27272727 </v>
   <v>       0.45454545       0.09090909       0.27272727 </v>
   <v>       0.18181818       0.18181818       0.27272727 </v>
   <v>       0.27272727       0.18181818       0.27272727 </v>
   <v>       0.36363636       0.18181818       0.27272727 </v>
   <v>       0.27272727       0.27272727       0.27272727 </v>
   <v>       0.36363636       0.27272727       0.27272727 </v>
   <v>       0.00000000       0.00000000       0.36363636 </v>
   <v>       0.09090909       0.00000000       0.36363636 </v>
   <v>       0.18181818      -0.00000000       0.36363636 </v>
   <v>       0.27272727      -0.00000000       0.36363636 </v>
   <v>       0.36363636      -0.00000000       0.36363636 </v>
   <v>       0.45454545      -0.00000000       0.36363636 </v>
   <v>       0.09090909       0.09090909       0.36363636 </v>
   <v>       0.18181818       0.09090909       0.36363636 </v>
   <v>       0.27272727       0.09090909       0.36363636 </v>
   <v>       0.36363636       0.09090909       0.36363636 </v>
   <v>       0.45454545       0.09090909       0.36363636 </v>
   <v>       0.18181818       0.18181818       0.36363636 </v>
   <v>       0.27272727       0.18181818       0.36363636 </v>
   <v>       0.36363636       0.18181818       0.36363636 </v>
   <v>       0.27272727       0.27272727       0.36363636 </v>
   <v>       0.36363636       0.27272727       0.36363636 </v>
   <v>       0.00000000       0.00000000       0.45454545 </v>
   <v>       0.09090909       0.00000000       0.45454545 </v>
   <v>       0.18181818      -0.00000000       0.45454545 </v>
   <v>       0.27272727      -0.00000000       0.45454545 </v>
   <v>       0.36363636      -0.00000000       0.45454545 </v>
   <v>       0.45454545      -0.00000000       0.45454545 </v>
   <v>       0.09090909       0.09090909       0.45454545 </v>
   <v>       0.18181818       0.09090909       0.45454545 </v>
   <v>       0.27272727       0.09090909       0.45454545 </v>
   <v>       0.36363636       0.09090909       0.45454545 </v>
   <v>       0.45454545       0.09090909       0.45454545 </v>
   <v>       0.18181818       0.18181818       0.45454545 </v>
   <v>       0.27272727       0.18181818       0.45454545 </v>
   <v>       0.36363636       0.18181818       0.45454545 </v>
   <v>       0.27272727       0.27272727       0.45454545 </v>
   <v>       0.36363636       0.27272727       0.45454545 </v>
  </varray>
  <varray name="weights" >
   <v>       0.00075131 </v>
   <v>       0.00450789 </v>
   <v>       0.00450789 </v>
   <v>       0.00450789 </v>
   <v>       0.00450789 </v>
   <v>       0.00450789 </v>
   <v>       0.00450789 </v>
   <v>       0.00901578 </v>
   <v>       0.00901578 </v>
   <v>       0.00901578 </v>
   <v>       0.00450789 </v>
   <v>       0.00450789 </v>
   <v>       0.00901578 </v>
   <v>       0.00901578 </v>
   <v>       0.00450789 </v>
   <v>       0.00450789 </v>
   <v>       0.00150263 </v>
   <v>       0.00901578 </v>
   <v>       0.00901578 </v>
   <v>       0.00901578 </v>
   <v>       0.00901578 </v>
   <v>       0.00901578 </v>
   <v>       0.00901578 </v>
   <v>       0.01803156 </v>
   <v>       0.01803156 </v>
   <v>       0.01803156 </v>
   <v>       0.00901578 </v>
   <v>       0.00901578 </v>
   <v>       0.01803156 </v>
   <v>       0.01803156 </v>
   <v>       0.00901578 </v>
   <v>       0.00901578 </v>
   <v>       0.00150263 </v>
   <v>       0.00901578 </v>
   <v>       0.00901578 </v>
   <v>       0.00901578 </v>
   <v>       0.00901578 </v>
   <v>       0.00901578 </v>
   <v>       0.00901578 </v>
   <v>       0.01803156 </v>
   <v>       0.01803156 </v>
   <v>       0.01803156 </v>
   <v>       0.00901578 </v>
   <v>       0.00901578 </v>
   <v>       0.01803156 </v>
   <v>       0.01803156 </v>
   <v>       0.00901578 </v>
   <v>       0.00901578 </v>
   <v>       0.00150263 </v>
   <v>       0.00901578 </v>
   <v>       0.00901578 </v>
   <v>       0.00901578 </v>
   <v>       0.00901578 </v>
   <v>       0.00901578 </v>
   <v>       0.00901578 </v>
   <v>       0.01803156 </v>
   <v>       0.01803156 </v>
   <v>       0.01803156 </v>
   <v>       0.00901578 </v>
   <v>       0.00901578 </v>
   <v>       0.01803156 </v>
   <v>       0.01803156 </v>
   <v>       0.00901578 </v>
   <v>       0.00901578 </v>
   <v>       0.00150263 </v>
   <v>       0.00901578 </v>
   <v>       0.00901578 </v>
   <v>       0.00901578 </v>
   <v>       0.00901578 </v>
   <v>       0.00901578 </v>
   <v>       0.00901578 </v>
   <v>       0.01803156 </v>
   <v>       0.01803156 </v>
   <v>       0.01803156 </v>
   <v>       0.00901578 </v>
   <v>       0.00901578 </v>
   <v>       0.01803156 </v>
   <v>       0.01803156 </v>
   <v>       0.00901578 </v>
   <v>       0.00901578 </v>
   <v>       0.00150263 </v>
   <v>       0.00901578 </v>
   <v>       0.00901578 </v>
   <v>       0.00901578 </v>
   <v>       0.00901578 </v>
   <v>       0.00901578 </v>
   <v>       0.00901578 </v>
   <v>       0.01803156 </v>
   <v>       0.01803156 </v>
   <v>       0.01803156 </v>
   <v>       0.00901578 </v>
   <v>       0.00901578 </v>
   <v>       0.01803156 </v>
   <v>       0.01803156 </v>
   <v>       0.00901578 </v>
   <v>       0.00901578 </v>
  </varray>
 </kpoints>
 <parameters>
  <separator name="general" >
   <i type="string" name="SYSTEM">unknown system</i>
   <i type="logical" name="LCOMPAT"> F  </i>
  </separator>
  <separator name="electronic" >
   <i type="string" name="PREC">normal</i>
   <i name="ENMAX">    280.00000000</i>
   <i name="ENAUG">    511.36800000</i>
   <i name="EDIFF">      0.00000100</i>
   <i type="int" name="IALGO">    38</i>
   <i type="int" name="IWAVPR">     0</i>
   <i type="int" name="NBANDS">    40</i>
   <i type="int" name="NBANDSLOW">    -1</i>
   <i type="int" name="NBANDSHIGH">    -1</i>
   <i name="NELECT">     16.00000000</i>
   <i type="int" name="TURBO">     0</i>
   <i type="int" name="IRESTART">     0</i>
   <i type="int" name="NREBOOT">     0</i>
   <i type="int" name="NMIN">     0</i>
   <i name="EREF">      0.00000000</i>
   <separator name="electronic smearing" >
    <i type="int" name="ISMEAR">     1</i>
    <i name="SIGMA">      0.20000000</i>
    <i name="KSPACING">      0.50000000</i>
    <i type="logical" name="KGAMMA"> T  </i>
    <i type="logical" name="KBLOWUP"> T  </i>
   </separator>
   <separator name="electronic projectors" >
    <i type="logical" name="LREAL"> F  </i>
    <v name="ROPT">      0.00000000</v>
    <i type="int" name="LMAXPAW">  -100</i>
    <i type="int" name="LMAXMIX">     2</i>
    <i type="logical" name="NLSPLINE"> F  </i>
   </separator>
   <separator name="electronic startup" >
    <i type="int" name="ISTART">     0</i>
    <i type="int" name="ICHARG">     1</i>
    <i type="int" name="INIWAV">     1</i>
   </separator>
   <separator name="electronic spin" >
    <i type="int" name="ISPIN">     1</i>
    <i type="logical" name="LNONCOLLINEAR"> F  </i>
    <v name="MAGMOM">      1.00000000      1.00000000</v>
    <i name="NUPDOWN">     -1.00000000</i>
    <i type="logical" name="LSORBIT"> F  </i>
    <v name="SAXIS">      0.00000000      0.00000000      1.00000000</v>
    <i type="logical" name="LSPIRAL"> F  </i>
    <v name="QSPIRAL">      0.00000000      0.00000000      0.00000000</v>
    <i type="logical" name="LZEROZ"> F  </i>
   </separator>
   <separator name="electronic exchange-correlation" >
    <i type="logical" name="LASPH"> F  </i>
    <i type="logical" name="LMETAGGA"> F  </i>
   </separator>
   <separator name="electronic convergence" >
    <i type="int" name="NELM">    60</i>
    <i type="int" name="NELMDL">    -5</i>
    <i type="int" name="NELMIN">     2</i>
    <i name="ENINI">    280.00000000</i>
    <separator name="electronic convergence detail" >
     <i type="logical" name="LDIAG"> T  </i>
     <i type="logical" name="LSUBROT"> F  </i>
     <i name="WEIMIN">      0.00000000</i>
     <i name="EBREAK">      0.00000001</i>
     <i name="DEPER">      0.30000000</i>
     <i type="int" name="NRMM">     4</i>
     <i name="TIME">      0.40000000</i>
    </separator>
   </separator>
   <separator name="electronic mixer" >
    <i name="AMIX">      0.40000000</i>
    <i name="BMIX">      1.00000000</i>
    <i name="AMIN">      0.10000000</i>
    <i name="AMIX_MAG">      1.60000000</i>
    <i name="BMIX_MAG">      1.00000000</i>
    <separator name="electronic mixer details" >
     <i type="int" name="IMIX">     4</i>
     <i type="logical" name="MIXFIRST"> F  </i>
     <i type="int" name="MAXMIX">   -45</i>
     <i name="WC">    100.00000000</i>
     <i type="int" name="INIMIX">     1</i>
     <i type="int" name="MIXPRE">     1</i>
     <i type="int" name="MREMOVE">     5</i>
    </separator>
   </separator>
   <separator name="electronic dipolcorrection" >
    <i type="logical" name="LDIPOL"> F  </i>
    <i type="logical" name="LMONO"> F  </i>
    <i type="int" name="IDIPOL">     0</i>
    <i name="EPSILON">      1.00000000</i>
    <v name="DIPOL">   -100.00000000   -100.00000000   -100.00000000</v>
    <i name="EFIELD">      0.00000000</i>
   </separator>
  </separator>
  <separator name="grids" >
   <i type="int" name="NGX">    10</i>
   <i type="int" name="NGY">    10</i>
   <i type="int" name="NGZ">    16</i>
   <i type="int" name="NGXF">    20</i>
   <i type="int" name="NGYF">    20</i>
   <i type="int" name="NGZF">    32</i>
   <i type="logical" name="ADDGRID"> F  </i>
  </separator>
  <separator name="ionic" >
   <i type="int" name="NSW">     0</i>
   <i type="int" name="IBRION">    -1</i>
   <i type="int" name="MDALGO">     0</i>
   <i type="int" name="ISIF">     2</i>
   <i name="PSTRESS">      0.00000000</i>
   <i name="EDIFFG">      0.00001000</i>
   <i type="int" name="NFREE">     0</i>
   <i name="POTIM">      0.50000000</i>
   <i name="SMASS">     -3.00000000</i>
   <i name="SCALEE">      1.00000000</i>
  </separator>
  <separator name="ionic md" >
   <i name="TEBEG">      0.00010000</i>
   <i name="TEEND">      0.00010000</i>
   <i type="int" name="NBLOCK">     1</i>
   <i type="int" name="KBLOCK">     1</i>
   <i type="int" name="NPACO">   256</i>
   <i name="APACO">     16.00000000</i>
  </separator>
  <separator name="symmetry" >
   <i type="int" name="ISYM">     2</i>
   <i name="SYMPREC">      0.00001000</i>
  </separator>
  <separator name="dos" >
   <i type="int" name="LORBIT">     0</i>
   <v name="RWIGS">     -1.00000000</v>
   <i type="int" name="NEDOS">   301</i>
   <i name="EMIN">     10.00000000</i>
   <i name="EMAX">    -10.00000000</i>
   <i name="EFERMI">      0.00000000</i>
  </separator>
  <separator name="writing" >
   <i type="int" name="NWRITE">     2</i>
   <i type="logical" name="LWAVE"> T  </i>
   <i type="logical" name="LDOWNSAMPLE"> F  </i>
   <i type="logical" name="LCHARG"> T  </i>
   <i type="logical" name="LPARD"> F  </i>
   <i type="logical" name="LVTOT"> F  </i>
   <i type="logical" name="LVHAR"> F  </i>
   <i type="logical" name="LELF"> F  </i>
   <i type="logical" name="LOPTICS"> F  </i>
   <v name="STM">      0.00000000      0.00000000      0.00000000      0.00000000      0.00000000      0.00000000      0.00000000</v>
  </separator>
  <separator name="performance" >
   <i type="int" name="NPAR">     1</i>
   <i type="int" name="NSIM">     4</i>
   <i type="int" name="NBLK">    -1</i>
   <i type="logical" name="LPLANE"> T  </i>
   <i type="logical" name="LSCALAPACK"> F  </i>
   <i type="logical" name="LSCAAWARE"> F  </i>
   <i type="logical" name="LSCALU"> F  </i>
   <i type="logical" name="LASYNC"> F  </i>
   <i type="logical" name="LORBITALREAL"> F  </i>
  </separator>
  <separator name="miscellaneous" >
   <i type="int" name="IDIOT">     3</i>
   <i type="int" name="PHON_NSTRUCT">    -1</i>
   <i type="logical" name="LMUSIC"> F  </i>
   <v name="POMASS">     55.84700000</v>
   <v name="DARWINR">      0.00000000</v>
   <v name="DARWINV">      1.00000000</v>
   <i type="logical" name="LCORR"> T  </i>
  </separator>
  <i type="logical" name="GGA_COMPAT"> T  </i>
  <i type="logical" name="LBERRY"> F  </i>
  <i type="int" name="ICORELEVEL">     0</i>
  <i type="logical" name="LDAU"> F  </i>
  <i type="int" name="I_CONSTRAINED_M">     0</i>
  <separator name="electronic exchange-correlation" >
   <i type="string" name="GGA">PE</i>
   <i type="int" name="VOSKOWN">     0</i>
   <i type="logical" name="LHFCALC"> F  </i>
   <i type="string" name="PRECFOCK"></i>
   <i type="logical" name="LSYMGRAD"> F  </i>
   <i type="logical" name="LHFONE"> F  </i>
   <i type="logical" name="LRHFCALC"> F  </i>
   <i type="logical" name="LTHOMAS"> F  </i>
   <i type="logical" name="LMODELHF"> F  </i>
   <i type="logical" name="LFOCKACE"> F  </i>
   <i name="ENCUT4O">     -1.00000000</i>
   <i type="int" name="EXXOEP">     0</i>
   <i type="int" name="FOURORBIT">     0</i>
   <i name="AEXX">      0.00000000</i>
   <i name="HFALPHA">      0.00000000</i>
   <i name="MCALPHA">      0.00000000</i>
   <i name="ALDAX">      1.00000000</i>
   <i name="AGGAX">      1.00000000</i>
   <i name="ALDAC">      1.00000000</i>
   <i name="AGGAC">      1.00000000</i>
   <i type="int" name="NKREDX">     1</i>
   <i type="int" name="NKREDY">     1</i>
   <i type="int" name="NKREDZ">     1</i>
   <i type="logical" name="SHIFTRED"> F  </i>
   <i type="logical" name="ODDONLY"> F  </i>
   <i type="logical" name="EVENONLY"> F  </i>
   <i type="int" name="LMAXFOCK">     0</i>
   <i type="int" name="NMAXFOCKAE">     0</i>
   <i type="logical" name="LFOCKAEDFT"> F  </i>
   <i name="HFSCREEN">      0.00000000</i>
   <i name="HFSCREENC">      0.00000000</i>
   <i type="int" name="NBANDSGWLOW">     0</i>
  </separator>
  <separator name="vdW DFT" >
   <i type="logical" name="LUSE_VDW"> F  </i>
   <i name="Zab_VDW">     -0.84910000</i>
   <i name="PARAM1">      0.12340000</i>
   <i name="PARAM2">      1.00000000</i>
   <i name="PARAM3">      0.00000000</i>
  </separator>
  <separator name="model GW" >
   <i type="int" name="MODEL_GW">     0</i>
   <i name="MODEL_EPS0">      5.60943758</i>
   <i name="MODEL_ALPHA">      1.00000000</i>
  </separator>
  <separator name="linear response parameters" >
   <i type="logical" name="LEPSILON"> F  </i>
   <i type="logical" name="LRPA"> F  </i>
   <i type="logical" name="LNABLA"> F  </i>
   <i type="logical" name="LVEL"> F  </i>
   <i type="int" name="KINTER">     0</i>
   <i name="CSHIFT">      0.10000000</i>
   <i name="OMEGAMAX">     -1.00000000</i>
   <i name="DEG_THRESHOLD">      0.00200000</i>
   <i name="RTIME">     -0.10000000</i>
   <i name="WPLASMAI">      0.00000000</i>
   <v name="DFIELD">      0.00000000      0.00000000      0.00000000</v>
   <v name="WPLASMA">      0.00000000      0.00000000      0.00000000      0.00000000      0.00000000      0.00000000      0.00000000      0.00000000      0.00000000</v>
  </separator>
  <separator name="orbital magnetization" >
   <i type="logical" name="NUCIND"> F  </i>
   <v name="MAGPOS">      0.00000000      0.00000000      0.00000000</v>
   <i type="logical" name="LNICSALL"> T  </i>
   <i type="logical" name="ORBITALMAG"> F  </i>
   <i type="logical" name="LMAGBLOCH"> F  </i>
   <i type="logical" name="LCHIMAG"> F  </i>
   <i type="logical" name="LGAUGE"> T  </i>
   <i type="int" name="MAGATOM">     0</i>
   <v name="MAGDIPOL">      0.00000000      0.00000000      0.00000000</v>
   <v name="AVECCONST">      0.00000000      0.00000000      0.00000000</v>
  </separator>
  <separator name="response functions" >
   <i type="logical" name="LFINITE_TEMPERATURE"> F  </i>
   <i type="logical" name="LADDER"> F  </i>
   <i type="logical" name="LRPAFORCE"> F  </i>
   <i type="logical" name="LFXC"> F  </i>
   <i type="logical" name="LHARTREE"> T  </i>
   <i type="int" name="IBSE">     0</i>
   <v type="int" name="KPOINT">    -1     0     0     0</v>
   <i type="logical" name="LTCTC"> F  </i>
   <i type="logical" name="LTCTE"> F  </i>
   <i type="logical" name="LTETE"> F  </i>
   <i type="logical" name="LTRIPLET"> F  </i>
   <i type="logical" name="LFXCEPS"> F  </i>
   <i type="logical" name="LFXHEG"> F  </i>
   <i type="int" name="NATURALO">     2</i>
   <i type="logical" name="LHOLEGF"> F  </i>
   <i type="logical" name="L2ORDER"> F  </i>
   <i type="logical" name="LDMP1"> F  </i>
   <i type="logical" name="LMP2LT"> F  </i>
   <i type="logical" name="LSMP2LT"> F  </i>
   <i type="logical" name="LGWLF"> F  </i>
   <i name="ENCUTGW">     -2.00000000</i>
   <i name="ENCUTGWSOFT">     -2.00000000</i>
   <i name="ENCUTLF">     -1.00000000</i>
   <i type="logical" name="LESF_SPLINES"> F  </i>
   <i type="int" name="LMAXMP2">    -1</i>
   <i name="SCISSOR">      0.00000000</i>
   <i type="int" name="NOMEGA">     0</i>
   <i type="int" name="NOMEGAR">     0</i>
   <i type="int" name="NBANDSGW">    -1</i>
   <i type="int" name="NBANDSO">    -1</i>
   <i type="int" name="NBANDSV">    -1</i>
   <i type="int" name="NELM">     1</i>
   <i type="int" name="NELMHF">     1</i>
   <i type="int" name="DIM">     3</i>
   <i type="int" name="IESPILON">     4</i>
   <i type="int" name="ANTIRES">     0</i>
   <i name="OMEGAMAX">    -30.00000000</i>
   <i name="OMEGAMIN">    -30.00000000</i>
   <i name="OMEGATL">   -200.00000000</i>
   <i type="int" name="OMEGAGRID">     0</i>
   <i name="CSHIFT">     -0.10000000</i>
   <i type="logical" name="LSELFENERGY"> F  </i>
   <i type="logical" name="LSPECTRAL"> F  </i>
   <i type="logical" name="LSPECTRALGW"> F  </i>
   <i type="logical" name="LSINGLES"> F  </i>
   <i type="logical" name="LFERMIGW"> F  </i>
   <i type="logical" name="ODDONLYGW"> F  </i>
   <i type="logical" name="EVENONLYGW"> F  </i>
   <i type="int" name="NKREDLFX">     1</i>
   <i type="int" name="NKREDLFY">     1</i>
   <i type="int" name="NKREDLFZ">     1</i>
   <i type="int" name="MAXMEM">  2800</i>
   <i type="int" name="TELESCOPE">     0</i>
   <i type="int" name="NTAUPAR">    -1</i>
   <i type="int" name="NOMEGAPAR">    -1</i>
   <i name="DAMP_NEWTON">      0.80000001</i>
   <i name="LAMBDA">      1.00000000</i>
  </separator>
  <separator name="External order field" >
   <i name="OFIELD_KAPPA">      0.00000000</i>
   <v name="OFIELD_K">      0.00000000      0.00000000      0.00000000</v>
   <i name="OFIELD_Q6_NEAR">      0.00000000</i>
   <i name="OFIELD_Q6_FAR">      0.00000000</i>
   <i name="OFIELD_A">      0.00000000</i>
  </separator>
 </parameters>
 <atominfo>
  <atoms>       2 </atoms>
  <types>       1 </types>
  <array name="atoms" >
   <dimension dim="1">ion</dimension>
   <field type="string">element</field>
   <field type="int">atomtype</field>
   <set>
    <rc><c>Fe</c><c>   1</c></rc>
    <rc><c>Fe</c><c>   1</c></rc>
   </set>
  </array>
  <array name="atomtypes" >
   <dimension dim="1">type</dimension>
   <field type="int">atomspertype</field>
   <field type="string">element</field>
   <field>mass</field>
   <field>valence</field>
   <field type="string">pseudopotential</field>
   <set>
    <rc><c>   2</c><c>Fe</c><c>     55.84700000</c><c>      8.00000000</c><c>  PAW_PBE Fe 06Sep2000                  </c></rc>
   </set>
  </array>
 </atominfo>
 <structure name="initialpos" >
  <crystal>
   <varray name="basis" >
    <v>       2.33000000       0.00000000       0.00000000 </v>
    <v>      -1.16500000       2.01783919       0.00000000 </v>
    <v>       0.00000000       0.00000000       3.97700000 </v>
   </varray>
   <i name="volume">     18.69812526 </i>
   <varray name="rec_basis" >
    <v>       0.42918455       0.24778982       0.00000000 </v>
    <v>       0.00000000       0.49557963       0.00000000 </v>
    <v>       0.00000000       0.00000000       0.25144581 </v>
   </varray>
  </crystal>
  <varray name="positions" >
   <v>       0.00000000       0.00000000       0.00000000 </v>
   <v>       0.33333333       0.66666667       0.50000000 </v>
  </varray>
 </structure>
 <calculation>
  <scstep>
   <time name="dav">    0.76    0.78</time>
   <time name="total">    0.77    0.79</time>
   <energy>
    <i name="alphaZ">    147.85177670 </i>
    <i name="ewald">  -1263.14217988 </i>
    <i name="hartreedc">   -194.34451618 </i>
    <i name="XCdc">      9.05145986 </i>
    <i name="pawpsdc">   1109.69170683 </i>
    <i name="pawaedc">  -1125.09647265 </i>
    <i name="eentropy">     -0.00111815 </i>
    <i name="bandstr">    186.76968502 </i>
    <i name="atom">   1188.57490811 </i>
    <i name="e_fr_energy">     59.35524965 </i>
    <i name="e_wo_entrp">     59.35636780 </i>
    <i name="e_0_energy">     59.35562237 </i>
   </energy>
  </scstep>
  <scstep>
   <time name="dav">    0.66    0.66</time>
   <time name="total">    0.66    0.66</time>
   <energy>
    <i name="e_fr_energy">    -14.77672164 </i>
    <i name="e_wo_entrp">    -14.77557761 </i>
    <i name="e_0_energy">    -14.77634029 </i>
   </energy>
  </scstep>
  <scstep>
   <time name="dav">    0.75    0.75</time>
   <time name="total">    0.75    0.75</time>
   <energy>
    <i name="e_fr_energy">    -18.98623135 </i>
    <i name="e_wo_entrp">    -18.98548601 </i>
    <i name="e_0_energy">    -18.98598291 </i>
   </energy>
  </scstep>
  <scstep>
   <time name="dav">    0.69    0.69</time>
   <time name="total">    0.70    0.70</time>
   <energy>
    <i name="e_fr_energy">    -19.00216730 </i>
    <i name="e_wo_entrp">    -19.00144148 </i>
    <i name="e_0_energy">    -19.00192536 </i>
   </energy>
  </scstep>
  <scstep>
   <time name="dav">    0.71    0.71</time>
   <time name="total">    0.73    0.73</time>
   <energy>
    <i name="e_fr_energy">    -19.00217952 </i>
    <i name="e_wo_entrp">    -19.00145371 </i>
    <i name="e_0_energy">    -19.00193758 </i>
   </energy>
  </scstep>
  <scstep>
   <time name="dav">    0.83    0.83</time>
   <time name="total">    0.86    0.86</time>
   <energy>
    <i name="e_fr_energy">    -16.23127425 </i>
    <i name="e_wo_entrp">    -16.23183999 </i>
    <i name="e_0_energy">    -16.23146283 </i>
   </energy>
  </scstep>
  <scstep>
   <time name="dav">    0.74    0.74</time>
   <time name="total">    0.77    0.77</time>
   <energy>
    <i name="e_fr_energy">    -16.09580832 </i>
    <i name="e_wo_entrp">    -16.09627400 </i>
    <i name="e_0_energy">    -16.09596355 </i>
   </energy>
  </scstep>
  <scstep>
   <time name="dav">    0.76    0.76</time>
   <time name="total">    0.79    0.79</time>
   <energy>
    <i name="e_fr_energy">    -16.06417551 </i>
    <i name="e_wo_entrp">    -16.06465497 </i>
    <i name="e_0_energy">    -16.06433533 </i>
   </energy>
  </scstep>
  <scstep>
   <time name="dav">    0.80    0.80</time>
   <time name="total">    0.83    0.83</time>
   <energy>
    <i name="e_fr_energy">    -16.05478384 </i>
    <i name="e_wo_entrp">    -16.05526402 </i>
    <i name="e_0_energy">    -16.05494390 </i>
   </energy>
  </scstep>
  <scstep>
   <time name="dav">    0.66    0.66</time>
   <time name="total">    0.69    0.69</time>
   <energy>
    <i name="e_fr_energy">    -16.05478727 </i>
    <i name="e_wo_entrp">    -16.05526371 </i>
    <i name="e_0_energy">    -16.05494608 </i>
   </energy>
  </scstep>
  <scstep>
   <time name="dav">    0.65    0.65</time>
   <time name="total">    0.68    0.68</time>
   <energy>
    <i name="e_fr_energy">    -16.05477603 </i>
    <i name="e_wo_entrp">    -16.05525248 </i>
    <i name="e_0_energy">    -16.05493484 </i>
   </energy>
  </scstep>
  <scstep>
   <time name="dav">    0.51    0.51</time>
   <time name="total">    0.53    0.53</time>
   <energy>
    <i name="alphaZ">    147.85177670 </i>
    <i name="ewald">  -1263.14217988 </i>
    <i name="hartreedc">   -160.52254935 </i>
    <i name="XCdc">      7.46055769 </i>
    <i name="pawpsdc">   1580.97052248 </i>
    <i name="pawaedc">  -1599.30741242 </i>
    <i name="eentropy">      0.00047671 </i>
    <i name="bandstr">     82.05912460 </i>
    <i name="atom">   1188.57490811 </i>
    <i name="e_fr_energy">    -16.05477537 </i>
    <i name="e_wo_entrp">    -16.05525208 </i>
    <i name="e_0_energy">    -16.05493427 </i>
   </energy>
  </scstep>
  <structure>
   <crystal>
    <varray name="basis" >
     <v>       2.33000000       0.00000000       0.00000000 </v>
     <v>      -1.16500000       2.01783919       0.00000000 </v>
     <v>       0.00000000       0.00000000       3.97700000 </v>
    </varray>
    <i name="volume">     18.69812526 </i>
    <varray name="rec_basis" >
     <v>       0.42918455       0.24778982       0.00000000 </v>
     <v>       0.00000000       0.49557963       0.00000000 </v>
     <v>       0.00000000       0.00000000       0.25144581 </v>
    </varray>
   </crystal>
   <varray name="positions" >
    <v>       0.00000000       0.00000000       0.00000000 </v>
    <v>       0.33333333       0.66666667       0.50000000 </v>
   </varray>
  </structure>
  <varray name="forces" >
   <v>      -0.00000000       0.00000000      -0.00000000 </v>
   <v>       0.00000000      -0.00000000       0.00000000 </v>
  </varray>
  <varray name="stress" >
   <v>     433.47917517      -0.00000000       0.00000000 </v>
   <v>      -0.00000000     433.47917517      -0.00000000 </v>
   <v>       0.00000000       0.00000000      -0.12381351 </v>
  </varray>
  <energy>
   <i name="e_fr_energy">    -16.05477537 </i>
   <i name="e_wo_entrp">    -16.05525208 </i>
   <i name="e_0_energy">    -16.05493427 </i>
  </energy>
  <time name="totalsc">    9.06    9.08</time>
  <eigenvalues>
   <array>
    <dimension dim="1">band</dimension>
    <dimension dim="2">kpoint</dimension>
    <dimension dim="3">spin</dimension>
    <field>eigene</field>
    <field>occ</field>
    <set>
     <set comment="spin 1">
      <set comment="kpoint 1">
       <r>   -1.4871    1.0000 </r>
       <r>    2.4408    1.0000 </r>
       <r>    5.6475    1.0000 </r>
       <r>    6.1099    1.0000 </r>
       <r>    6.1100    1.0000 </r>
       <r>    6.5097    1.0000 </r>
       <r>    6.5098    1.0000 </r>
       <r>    7.3834    1.0010 </r>
       <r>    7.3834    1.0010 </r>
       <r>    7.5099    1.0110 </r>
       <r>    8.7398   -0.0000 </r>
       <r>    8.7398   -0.0000 </r>
       <r>   16.4926    0.0000 </r>
       <r>   31.6215    0.0000 </r>
       <r>   33.2633    0.0000 </r>
       <r>   35.0411    0.0000 </r>
       <r>   37.5281    0.0000 </r>
       <r>   37.5281    0.0000 </r>
       <r>   38.3026    0.0000 </r>
       <r>   38.3028    0.0000 </r>
       <r>   40.8590    0.0000 </r>
       <r>   41.1953    0.0000 </r>
       <r>   41.1953    0.0000 </r>
       <r>   42.3246    0.0000 </r>
       <r>   45.3883    0.0000 </r>
       <r>   45.3883    0.0000 </r>
       <r>   46.9685    0.0000 </r>
       <r>   49.4564    0.0000 </r>
       <r>   49.4568    0.0000 </r>
       <r>   51.4227    0.0000 </r>
       <r>   51.4229    0.0000 </r>
       <r>   54.6395    0.0000 </r>
       <r>   62.7446    0.0000 </r>
       <r>   63.7151    0.0000 </r>
       <r>   63.9185    0.0000 </r>
       <r>   63.9195    0.0000 </r>
       <r>   65.3181    0.0000 </r>
       <r>   66.9867    0.0000 </r>
       <r>   66.9880    0.0000 </r>
       <r>   69.5298    0.0000 </r>
      </set>
      <set comment="kpoint 2">
       <r>   -1.1409    1.0000 </r>
       <r>    2.6921    1.0000 </r>
       <r>    5.5603    1.0000 </r>
       <r>    6.1345    1.0000 </r>
       <r>    6.3207    1.0000 </r>
       <r>    6.3958    1.0000 </r>
       <r>    6.4169    1.0000 </r>
       <r>    6.7038    1.0000 </r>
       <r>    7.2544    1.0000 </r>
       <r>    7.2624    1.0000 </r>
       <r>    8.7863   -0.0000 </r>
       <r>   10.0860   -0.0000 </r>
       <r>   16.5107    0.0000 </r>
       <r>   30.5231    0.0000 </r>
       <r>   33.3733    0.0000 </r>
       <r>   33.5390    0.0000 </r>
       <r>   34.6595    0.0000 </r>
       <r>   36.9886    0.0000 </r>
       <r>   37.1530    0.0000 </r>
       <r>   40.6611    0.0000 </r>
       <r>   40.7289    0.0000 </r>
       <r>   41.3353    0.0000 </r>
       <r>   42.0852    0.0000 </r>
       <r>   42.4082    0.0000 </r>
       <r>   46.4800    0.0000 </r>
       <r>   46.7511    0.0000 </r>
       <r>   46.8960    0.0000 </r>
       <r>   47.1988    0.0000 </r>
       <r>   50.8340    0.0000 </r>
       <r>   53.0209    0.0000 </r>
       <r>   53.8885    0.0000 </r>
       <r>   56.3331    0.0000 </r>
       <r>   61.5020    0.0000 </r>
       <r>   63.0545    0.0000 </r>
       <r>   63.3871    0.0000 </r>
       <r>   63.9022    0.0000 </r>
       <r>   64.0068    0.0000 </r>
       <r>   67.6038    0.0000 </r>
       <r>   69.1253    0.0000 </r>
       <r>   69.5019    0.0000 </r>
      </set>
      <set comment="kpoint 3">
       <r>   -0.1660    1.0000 </r>
       <r>    3.2762    1.0000 </r>
       <r>    5.1612    1.0000 </r>
       <r>    5.2245    1.0000 </r>
       <r>    5.9771    1.0000 </r>
       <r>    6.6269    1.0000 </r>
       <r>    6.9051    1.0000 </r>
       <r>    6.9244    1.0000 </r>
       <r>    6.9504    1.0000 </r>
       <r>    7.2339    1.0000 </r>
       <r>    8.8694   -0.0000 </r>
       <r>   12.1046   -0.0000 </r>
       <r>   16.5860    0.0000 </r>
       <r>   26.9031    0.0000 </r>
       <r>   31.6968    0.0000 </r>
       <r>   32.1177    0.0000 </r>
       <r>   32.7729    0.0000 </r>
       <r>   34.2192    0.0000 </r>
       <r>   37.9221    0.0000 </r>
       <r>   39.7124    0.0000 </r>
       <r>   39.9970    0.0000 </r>
       <r>   40.3010    0.0000 </r>
       <r>   42.7254    0.0000 </r>
       <r>   44.2921    0.0000 </r>
       <r>   46.4385    0.0000 </r>
       <r>   47.3437    0.0000 </r>
       <r>   49.0648    0.0000 </r>
       <r>   51.4611    0.0000 </r>
       <r>   53.9969    0.0000 </r>
       <r>   56.0688    0.0000 </r>
       <r>   56.6464    0.0000 </r>
       <r>   59.3782    0.0000 </r>
       <r>   59.8582    0.0000 </r>
       <r>   61.2801    0.0000 </r>
       <r>   61.4427    0.0000 </r>
       <r>   62.7296    0.0000 </r>
       <r>   64.8603    0.0000 </r>
       <r>   68.3530    0.0000 </r>
       <r>   69.4634    0.0000 </r>
       <r>   70.6095    0.0000 </r>
      </set>
      <set comment="kpoint 4">
       <r>    1.2015    1.0000 </r>
       <r>    3.5464    1.0000 </r>
       <r>    4.1838    1.0000 </r>
       <r>    5.1178    1.0000 </r>
       <r>    5.8164    1.0000 </r>
       <r>    6.4983    1.0000 </r>
       <r>    6.6061    1.0000 </r>
       <r>    7.4437    1.0036 </r>
       <r>    7.7370    0.9796 </r>
       <r>    7.9785    0.1611 </r>
       <r>    8.9290   -0.0000 </r>
       <r>   14.3374    0.0000 </r>
       <r>   16.7423    0.0000 </r>
       <r>   22.9168    0.0000 </r>
       <r>   29.1261    0.0000 </r>
       <r>   29.1612    0.0000 </r>
       <r>   30.6919    0.0000 </r>
       <r>   33.7404    0.0000 </r>
       <r>   36.3548    0.0000 </r>
       <r>   39.4342    0.0000 </r>
       <r>   40.3425    0.0000 </r>
       <r>   40.4320    0.0000 </r>
       <r>   40.4879    0.0000 </r>
       <r>   44.7206    0.0000 </r>
       <r>   49.8804    0.0000 </r>
       <r>   51.6854    0.0000 </r>
       <r>   52.5686    0.0000 </r>
       <r>   54.5287    0.0000 </r>
       <r>   55.8991    0.0000 </r>
       <r>   56.7744    0.0000 </r>
       <r>   58.3386    0.0000 </r>
       <r>   59.8584    0.0000 </r>
       <r>   60.6719    0.0000 </r>
       <r>   61.6032    0.0000 </r>
       <r>   61.9657    0.0000 </r>
       <r>   63.8270    0.0000 </r>
       <r>   64.9317    0.0000 </r>
       <r>   68.8787    0.0000 </r>
       <r>   69.2605    0.0000 </r>
       <r>   70.1266    0.0000 </r>
      </set>
      <set comment="kpoint 5">
       <r>    2.3919    1.0000 </r>
       <r>    3.2674    1.0000 </r>
       <r>    3.5238    1.0000 </r>
       <r>    5.3686    1.0000 </r>
       <r>    6.1240    1.0000 </r>
       <r>    6.1672    1.0000 </r>
       <r>    6.3210    1.0000 </r>
       <r>    8.5743   -0.0000 </r>
       <r>    8.7347   -0.0000 </r>
       <r>    8.7507   -0.0000 </r>
       <r>    8.9537   -0.0000 </r>
       <r>   16.3538    0.0000 </r>
       <r>   16.6886    0.0000 </r>
       <r>   20.1965    0.0000 </r>
       <r>   25.8716    0.0000 </r>
       <r>   27.2095    0.0000 </r>
       <r>   28.0609    0.0000 </r>
       <r>   32.7206    0.0000 </r>
       <r>   35.1067    0.0000 </r>
       <r>   38.3474    0.0000 </r>
       <r>   39.0452    0.0000 </r>
       <r>   41.3401    0.0000 </r>
       <r>   42.6543    0.0000 </r>
       <r>   45.1803    0.0000 </r>
       <r>   53.1875    0.0000 </r>
       <r>   53.5579    0.0000 </r>
       <r>   53.6834    0.0000 </r>
       <r>   56.8022    0.0000 </r>
       <r>   57.3305    0.0000 </r>
       <r>   58.0502    0.0000 </r>
       <r>   60.4797    0.0000 </r>
       <r>   60.7692    0.0000 </r>
       <r>   61.5405    0.0000 </r>
       <r>   61.6869    0.0000 </r>
       <r>   63.3082    0.0000 </r>
       <r>   64.9995    0.0000 </r>
       <r>   68.6308    0.0000 </r>
       <r>   68.7422    0.0000 </r>
       <r>   68.9813    0.0000 </r>
       <r>   69.0264    0.0000 </r>
      </set>
      <set comment="kpoint 6">
       <r>    2.8040    1.0000 </r>
       <r>    3.0656    1.0000 </r>
       <r>    3.1915    1.0000 </r>
       <r>    5.9066    1.0000 </r>
       <r>    5.9236    1.0000 </r>
       <r>    6.1634    1.0000 </r>
       <r>    6.4341    1.0000 </r>
       <r>    8.9601   -0.0000 </r>
       <r>    9.0928   -0.0000 </r>
       <r>    9.2484   -0.0000 </r>
       <r>   10.5179   -0.0000 </r>
       <r>   14.1724    0.0000 </r>
       <r>   18.8878    0.0000 </r>
       <r>   20.3544    0.0000 </r>
       <r>   23.2244    0.0000 </r>
       <r>   25.4623    0.0000 </r>
       <r>   26.1120    0.0000 </r>
       <r>   32.0419    0.0000 </r>
       <r>   34.7119    0.0000 </r>
       <r>   37.1782    0.0000 </r>
       <r>   38.8854    0.0000 </r>
       <r>   42.1485    0.0000 </r>
       <r>   44.7980    0.0000 </r>
       <r>   45.5106    0.0000 </r>
       <r>   49.8375    0.0000 </r>
       <r>   54.6762    0.0000 </r>
       <r>   55.5609    0.0000 </r>
       <r>   58.8471    0.0000 </r>
       <r>   59.9315    0.0000 </r>
       <r>   59.9700    0.0000 </r>
       <r>   61.4637    0.0000 </r>
       <r>   61.9509    0.0000 </r>
       <r>   62.1151    0.0000 </r>
       <r>   64.4856    0.0000 </r>
       <r>   64.5680    0.0000 </r>
       <r>   66.3651    0.0000 </r>
       <r>   67.4076    0.0000 </r>
       <r>   67.5414    0.0000 </r>
       <r>   68.9511    0.0000 </r>
       <r>   69.2708    0.0000 </r>
      </set>
      <set comment="kpoint 7">
       <r>   -0.4774    1.0000 </r>
       <r>    3.1288    1.0000 </r>
       <r>    5.2842    1.0000 </r>
       <r>    5.4947    1.0000 </r>
       <r>    6.1715    1.0000 </r>
       <r>    6.3081    1.0000 </r>
       <r>    6.7473    1.0000 </r>
       <r>    6.8143    1.0000 </r>
       <r>    7.1179    1.0000 </r>
       <r>    7.2536    1.0000 </r>
       <r>    8.8188   -0.0000 </r>
       <r>   11.5487   -0.0000 </r>
       <r>   16.5606    0.0000 </r>
       <r>   28.5673    0.0000 </r>
       <r>   30.0649    0.0000 </r>
       <r>   33.8092    0.0000 </r>
       <r>   34.2975    0.0000 </r>
       <r>   35.6072    0.0000 </r>
       <r>   36.0531    0.0000 </r>
       <r>   38.5260    0.0000 </r>
       <r>   40.0751    0.0000 </r>
       <r>   43.5056    0.0000 </r>
       <r>   43.7831    0.0000 </r>
       <r>   44.6329    0.0000 </r>
       <r>   45.4652    0.0000 </r>
       <r>   45.6194    0.0000 </r>
       <r>   45.8675    0.0000 </r>
       <r>   51.7978    0.0000 </r>
       <r>   54.3529    0.0000 </r>
       <r>   54.8578    0.0000 </r>
       <r>   54.8920    0.0000 </r>
       <r>   58.6334    0.0000 </r>
       <r>   60.1240    0.0000 </r>
       <r>   62.0522    0.0000 </r>
       <r>   62.3978    0.0000 </r>
       <r>   62.7301    0.0000 </r>
       <r>   63.9688    0.0000 </r>
       <r>   68.6020    0.0000 </r>
       <r>   69.2990    0.0000 </r>
       <r>   70.6013    0.0000 </r>
      </set>
      <set comment="kpoint 8">
       <r>    0.7217    1.0000 </r>
       <r>    3.6764    1.0000 </r>
       <r>    4.5411    1.0000 </r>
       <r>    4.8987    1.0000 </r>
       <r>    5.8991    1.0000 </r>
       <r>    6.3684    1.0000 </r>
       <r>    6.7838    1.0000 </r>
       <r>    6.9903    1.0000 </r>
       <r>    7.5130    1.0115 </r>
       <r>    7.8927    0.4858 </r>
       <r>    8.8450   -0.0000 </r>
       <r>   13.5553    0.0000 </r>
       <r>   16.7279    0.0000 </r>
       <r>   24.9370    0.0000 </r>
       <r>   27.5946    0.0000 </r>
       <r>   30.8828    0.0000 </r>
       <r>   33.2432    0.0000 </r>
       <r>   33.5486    0.0000 </r>
       <r>   36.8328    0.0000 </r>
       <r>   38.1237    0.0000 </r>
       <r>   38.6362    0.0000 </r>
       <r>   43.2782    0.0000 </r>
       <r>   43.5194    0.0000 </r>
       <r>   44.2063    0.0000 </r>
       <r>   47.3158    0.0000 </r>
       <r>   48.2318    0.0000 </r>
       <r>   49.9889    0.0000 </r>
       <r>   54.9052    0.0000 </r>
       <r>   56.5382    0.0000 </r>
       <r>   57.5781    0.0000 </r>
       <r>   57.6977    0.0000 </r>
       <r>   59.8165    0.0000 </r>
       <r>   60.2518    0.0000 </r>
       <r>   61.1769    0.0000 </r>
       <r>   61.7359    0.0000 </r>
       <r>   62.1576    0.0000 </r>
       <r>   64.4458    0.0000 </r>
       <r>   68.9886    0.0000 </r>
       <r>   69.0893    0.0000 </r>
       <r>   70.3324    0.0000 </r>
      </set>
      <set comment="kpoint 9">
       <r>    2.0957    1.0000 </r>
       <r>    3.6079    1.0000 </r>
       <r>    3.8111    1.0000 </r>
       <r>    4.9665    1.0000 </r>
       <r>    5.9770    1.0000 </r>
       <r>    6.0319    1.0000 </r>
       <r>    6.5930    1.0000 </r>
       <r>    7.5857    1.0268 </r>
       <r>    8.3615   -0.0021 </r>
       <r>    8.8592   -0.0000 </r>
       <r>    8.9070   -0.0000 </r>
       <r>   15.8146    0.0000 </r>
       <r>   16.9326    0.0000 </r>
       <r>   21.2922    0.0000 </r>
       <r>   25.8080    0.0000 </r>
       <r>   27.5707    0.0000 </r>
       <r>   30.3900    0.0000 </r>
       <r>   31.9792    0.0000 </r>
       <r>   36.2742    0.0000 </r>
       <r>   37.3767    0.0000 </r>
       <r>   39.3731    0.0000 </r>
       <r>   43.1393    0.0000 </r>
       <r>   43.1763    0.0000 </r>
       <r>   45.6201    0.0000 </r>
       <r>   49.4309    0.0000 </r>
       <r>   52.1021    0.0000 </r>
       <r>   54.0214    0.0000 </r>
       <r>   55.1985    0.0000 </r>
       <r>   55.4933    0.0000 </r>
       <r>   58.6389    0.0000 </r>
       <r>   59.7192    0.0000 </r>
       <r>   60.9441    0.0000 </r>
       <r>   61.4933    0.0000 </r>
       <r>   61.7189    0.0000 </r>
       <r>   62.9182    0.0000 </r>
       <r>   64.4716    0.0000 </r>
       <r>   66.9347    0.0000 </r>
       <r>   68.2924    0.0000 </r>
       <r>   68.6039    0.0000 </r>
       <r>   70.5777    0.0000 </r>
      </set>
      <set comment="kpoint 10">
       <r>    2.9179    1.0000 </r>
       <r>    3.2974    1.0000 </r>
       <r>    3.3634    1.0000 </r>
       <r>    5.4276    1.0000 </r>
       <r>    5.8686    1.0000 </r>
       <r>    6.2192    1.0000 </r>
       <r>    6.3425    1.0000 </r>
       <r>    8.5328   -0.0000 </r>
       <r>    8.8594   -0.0000 </r>
       <r>    8.9661   -0.0000 </r>
       <r>   10.2083   -0.0000 </r>
       <r>   15.6789    0.0000 </r>
       <r>   18.1649    0.0000 </r>
       <r>   20.1141    0.0000 </r>
       <r>   24.4283    0.0000 </r>
       <r>   24.5906    0.0000 </r>
       <r>   27.2021    0.0000 </r>
       <r>   31.0314    0.0000 </r>
       <r>   35.2963    0.0000 </r>
       <r>   36.7886    0.0000 </r>
       <r>   40.1371    0.0000 </r>
       <r>   43.5660    0.0000 </r>
       <r>   44.7003    0.0000 </r>
       <r>   45.6435    0.0000 </r>
       <r>   51.7638    0.0000 </r>
       <r>   52.2531    0.0000 </r>
       <r>   54.7362    0.0000 </r>
       <r>   56.0990    0.0000 </r>
       <r>   57.9060    0.0000 </r>
       <r>   59.8188    0.0000 </r>
       <r>   60.0314    0.0000 </r>
       <r>   61.5063    0.0000 </r>
       <r>   62.1863    0.0000 </r>
       <r>   64.3262    0.0000 </r>
       <r>   65.3650    0.0000 </r>
       <r>   66.2371    0.0000 </r>
       <r>   66.2914    0.0000 </r>
       <r>   68.7177    0.0000 </r>
       <r>   69.7670    0.0000 </r>
       <r>   70.0559    0.0000 </r>
      </set>
      <set comment="kpoint 11">
       <r>    3.0071    1.0000 </r>
       <r>    3.2130    1.0000 </r>
       <r>    3.2452    1.0000 </r>
       <r>    5.8030    1.0000 </r>
       <r>    5.8602    1.0000 </r>
       <r>    6.0300    1.0000 </r>
       <r>    6.4825    1.0000 </r>
       <r>    8.8580   -0.0000 </r>
       <r>    9.0630   -0.0000 </r>
       <r>    9.0760   -0.0000 </r>
       <r>   11.4976   -0.0000 </r>
       <r>   13.8329    0.0000 </r>
       <r>   19.7468    0.0000 </r>
       <r>   20.7949    0.0000 </r>
       <r>   22.7947    0.0000 </r>
       <r>   23.6893    0.0000 </r>
       <r>   25.6673    0.0000 </r>
       <r>   30.6957    0.0000 </r>
       <r>   34.8819    0.0000 </r>
       <r>   36.6285    0.0000 </r>
       <r>   40.2519    0.0000 </r>
       <r>   44.3247    0.0000 </r>
       <r>   44.7747    0.0000 </r>
       <r>   46.5343    0.0000 </r>
       <r>   49.4842    0.0000 </r>
       <r>   54.3012    0.0000 </r>
       <r>   54.6829    0.0000 </r>
       <r>   57.4787    0.0000 </r>
       <r>   59.0384    0.0000 </r>
       <r>   59.1368    0.0000 </r>
       <r>   62.2768    0.0000 </r>
       <r>   62.3055    0.0000 </r>
       <r>   62.4178    0.0000 </r>
       <r>   62.6362    0.0000 </r>
       <r>   65.9658    0.0000 </r>
       <r>   67.8893    0.0000 </r>
       <r>   68.0653    0.0000 </r>
       <r>   68.4209    0.0000 </r>
       <r>   68.4931    0.0000 </r>
       <r>   70.9403    0.0000 </r>
      </set>
      <set comment="kpoint 12">
       <r>    2.0089    1.0000 </r>
       <r>    3.9787    1.0000 </r>
       <r>    4.1167    1.0000 </r>
       <r>    4.4085    1.0000 </r>
       <r>    5.8989    1.0000 </r>
       <r>    5.9707    1.0000 </r>
       <r>    6.7693    1.0000 </r>
       <r>    7.0580    1.0000 </r>
       <r>    8.3408   -0.0032 </r>
       <r>    8.7627   -0.0000 </r>
       <r>    8.9700   -0.0000 </r>
       <r>   15.5351    0.0000 </r>
       <r>   17.1427    0.0000 </r>
       <r>   22.8836    0.0000 </r>
       <r>   23.7892    0.0000 </r>
       <r>   28.9524    0.0000 </r>
       <r>   30.6820    0.0000 </r>
       <r>   32.7484    0.0000 </r>
       <r>   33.5965    0.0000 </r>
       <r>   39.1709    0.0000 </r>
       <r>   40.0761    0.0000 </r>
       <r>   44.1117    0.0000 </r>
       <r>   44.5822    0.0000 </r>
       <r>   46.7376    0.0000 </r>
       <r>   47.3133    0.0000 </r>
       <r>   49.4455    0.0000 </r>
       <r>   51.0939    0.0000 </r>
       <r>   56.4599    0.0000 </r>
       <r>   56.6716    0.0000 </r>
       <r>   58.4656    0.0000 </r>
       <r>   58.5370    0.0000 </r>
       <r>   61.0506    0.0000 </r>
       <r>   61.2613    0.0000 </r>
       <r>   63.3810    0.0000 </r>
       <r>   63.9142    0.0000 </r>
       <r>   63.9542    0.0000 </r>
       <r>   64.3711    0.0000 </r>
       <r>   68.1741    0.0000 </r>
       <r>   68.5386    0.0000 </r>
       <r>   71.6310    0.0000 </r>
      </set>
      <set comment="kpoint 13">
       <r>    3.2113    1.0000 </r>
       <r>    3.5882    1.0000 </r>
       <r>    3.8414    1.0000 </r>
       <r>    4.6144    1.0000 </r>
       <r>    5.6514    1.0000 </r>
       <r>    6.2681    1.0000 </r>
       <r>    6.3594    1.0000 </r>
       <r>    7.6498    1.0353 </r>
       <r>    8.6887   -0.0000 </r>
       <r>    8.9190   -0.0000 </r>
       <r>   10.3307   -0.0000 </r>
       <r>   17.3795    0.0000 </r>
       <r>   17.8116    0.0000 </r>
       <r>   20.1576    0.0000 </r>
       <r>   22.1189    0.0000 </r>
       <r>   26.4354    0.0000 </r>
       <r>   28.9722    0.0000 </r>
       <r>   29.3373    0.0000 </r>
       <r>   32.2446    0.0000 </r>
       <r>   40.5632    0.0000 </r>
       <r>   41.1788    0.0000 </r>
       <r>   44.5570    0.0000 </r>
       <r>   46.4886    0.0000 </r>
       <r>   47.2762    0.0000 </r>
       <r>   49.0843    0.0000 </r>
       <r>   50.7063    0.0000 </r>
       <r>   52.3824    0.0000 </r>
       <r>   54.4054    0.0000 </r>
       <r>   57.4073    0.0000 </r>
       <r>   58.1309    0.0000 </r>
       <r>   59.6847    0.0000 </r>
       <r>   61.2708    0.0000 </r>
       <r>   62.4879    0.0000 </r>
       <r>   63.7614    0.0000 </r>
       <r>   65.7351    0.0000 </r>
       <r>   66.0781    0.0000 </r>
       <r>   67.4884    0.0000 </r>
       <r>   68.7840    0.0000 </r>
       <r>   69.8488    0.0000 </r>
       <r>   70.9857    0.0000 </r>
      </set>
      <set comment="kpoint 14">
       <r>    3.3935    1.0000 </r>
       <r>    3.5299    1.0000 </r>
       <r>    3.6876    1.0000 </r>
       <r>    5.1465    1.0000 </r>
       <r>    5.6724    1.0000 </r>
       <r>    5.9416    1.0000 </r>
       <r>    6.5532    1.0000 </r>
       <r>    8.3812   -0.0014 </r>
       <r>    8.6470   -0.0000 </r>
       <r>    8.9780   -0.0000 </r>
       <r>   12.0063   -0.0000 </r>
       <r>   15.2500    0.0000 </r>
       <r>   20.1208    0.0000 </r>
       <r>   20.4667    0.0000 </r>
       <r>   21.4456    0.0000 </r>
       <r>   23.8030    0.0000 </r>
       <r>   26.4279    0.0000 </r>
       <r>   28.2918    0.0000 </r>
       <r>   31.5764    0.0000 </r>
       <r>   40.4279    0.0000 </r>
       <r>   42.7248    0.0000 </r>
       <r>   45.0862    0.0000 </r>
       <r>   46.8024    0.0000 </r>
       <r>   47.4281    0.0000 </r>
       <r>   51.2477    0.0000 </r>
       <r>   51.5796    0.0000 </r>
       <r>   53.4940    0.0000 </r>
       <r>   53.6398    0.0000 </r>
       <r>   57.4836    0.0000 </r>
       <r>   58.4791    0.0000 </r>
       <r>   58.9581    0.0000 </r>
       <r>   61.8540    0.0000 </r>
       <r>   62.3709    0.0000 </r>
       <r>   62.5900    0.0000 </r>
       <r>   66.8949    0.0000 </r>
       <r>   67.4153    0.0000 </r>
       <r>   69.0747    0.0000 </r>
       <r>   69.4271    0.0000 </r>
       <r>   70.1886    0.0000 </r>
       <r>   71.0075    0.0000 </r>
      </set>
      <set comment="kpoint 15">
       <r>    3.5186    1.0000 </r>
       <r>    3.9443    1.0000 </r>
       <r>    4.2928    1.0000 </r>
       <r>    4.3165    1.0000 </r>
       <r>    5.4950    1.0000 </r>
       <r>    5.9684    1.0000 </r>
       <r>    6.6072    1.0000 </r>
       <r>    7.9398    0.2938 </r>
       <r>    8.5390   -0.0000 </r>
       <r>    8.9533   -0.0000 </r>
       <r>   12.1425   -0.0000 </r>
       <r>   17.4315    0.0000 </r>
       <r>   17.9112    0.0000 </r>
       <r>   20.1534    0.0000 </r>
       <r>   21.4462    0.0000 </r>
       <r>   25.6835    0.0000 </r>
       <r>   26.0260    0.0000 </r>
       <r>   28.1065    0.0000 </r>
       <r>   29.0448    0.0000 </r>
       <r>   42.7098    0.0000 </r>
       <r>   43.7733    0.0000 </r>
       <r>   46.6498    0.0000 </r>
       <r>   47.7246    0.0000 </r>
       <r>   49.1422    0.0000 </r>
       <r>   49.2490    0.0000 </r>
       <r>   49.2837    0.0000 </r>
       <r>   52.1373    0.0000 </r>
       <r>   54.7466    0.0000 </r>
       <r>   55.1294    0.0000 </r>
       <r>   57.6627    0.0000 </r>
       <r>   58.8946    0.0000 </r>
       <r>   61.4849    0.0000 </r>
       <r>   62.2729    0.0000 </r>
       <r>   62.7416    0.0000 </r>
       <r>   66.6219    0.0000 </r>
       <r>   67.7566    0.0000 </r>
       <r>   67.8796    0.0000 </r>
       <r>   69.8067    0.0000 </r>
       <r>   70.9878    0.0000 </r>
       <r>   71.4302    0.0000 </r>
      </set>
      <set comment="kpoint 16">
       <r>    3.5150    1.0000 </r>
       <r>    4.0831    1.0000 </r>
       <r>    4.1434    1.0000 </r>
       <r>    4.6794    1.0000 </r>
       <r>    5.5671    1.0000 </r>
       <r>    5.6719    1.0000 </r>
       <r>    6.7718    1.0000 </r>
       <r>    8.3301   -0.0039 </r>
       <r>    8.4824   -0.0001 </r>
       <r>    8.6483   -0.0000 </r>
       <r>   13.9327    0.0000 </r>
       <r>   15.3639    0.0000 </r>
       <r>   17.5291    0.0000 </r>
       <r>   22.1903    0.0000 </r>
       <r>   22.4061    0.0000 </r>
       <r>   23.6280    0.0000 </r>
       <r>   25.5911    0.0000 </r>
       <r>   26.5010    0.0000 </r>
       <r>   28.4148    0.0000 </r>
       <r>   43.1545    0.0000 </r>
       <r>   45.8427    0.0000 </r>
       <r>   47.0335    0.0000 </r>
       <r>   47.6898    0.0000 </r>
       <r>   48.5005    0.0000 </r>
       <r>   50.0961    0.0000 </r>
       <r>   50.4354    0.0000 </r>
       <r>   53.2531    0.0000 </r>
       <r>   53.6878    0.0000 </r>
       <r>   53.8961    0.0000 </r>
       <r>   57.3186    0.0000 </r>
       <r>   58.7738    0.0000 </r>
       <r>   59.3051    0.0000 </r>
       <r>   62.3152    0.0000 </r>
       <r>   62.5414    0.0000 </r>
       <r>   67.0454    0.0000 </r>
       <r>   67.9625    0.0000 </r>
       <r>   70.0549    0.0000 </r>
       <r>   70.2408    0.0000 </r>
       <r>   70.2958    0.0000 </r>
       <r>   70.7460    0.0000 </r>
      </set>
      <set comment="kpoint 17">
       <r>   -1.3975    1.0000 </r>
       <r>    2.4219    1.0000 </r>
       <r>    5.6210    1.0000 </r>
       <r>    6.0940    1.0000 </r>
       <r>    6.0940    1.0000 </r>
       <r>    6.4853    1.0000 </r>
       <r>    6.4854    1.0000 </r>
       <r>    7.2574    1.0000 </r>
       <r>    7.4374    1.0032 </r>
       <r>    7.4374    1.0032 </r>
       <r>    8.7317   -0.0000 </r>
       <r>    8.7317   -0.0000 </r>
       <r>   16.9049    0.0000 </r>
       <r>   31.4291    0.0000 </r>
       <r>   32.9563    0.0000 </r>
       <r>   34.8439    0.0000 </r>
       <r>   37.5777    0.0000 </r>
       <r>   37.5777    0.0000 </r>
       <r>   38.3121    0.0000 </r>
       <r>   38.3122    0.0000 </r>
       <r>   41.1182    0.0000 </r>
       <r>   41.1182    0.0000 </r>
       <r>   41.2607    0.0000 </r>
       <r>   42.6175    0.0000 </r>
       <r>   45.0434    0.0000 </r>
       <r>   45.0434    0.0000 </r>
       <r>   47.2905    0.0000 </r>
       <r>   49.7316    0.0000 </r>
       <r>   49.7320    0.0000 </r>
       <r>   51.8562    0.0000 </r>
       <r>   51.8563    0.0000 </r>
       <r>   54.5217    0.0000 </r>
       <r>   61.8105    0.0000 </r>
       <r>   63.7338    0.0000 </r>
       <r>   63.7348    0.0000 </r>
       <r>   63.8957    0.0000 </r>
       <r>   65.8613    0.0000 </r>
       <r>   65.8620    0.0000 </r>
       <r>   66.4544    0.0000 </r>
       <r>   69.9981    0.0000 </r>
      </set>
      <set comment="kpoint 18">
       <r>   -1.0536    1.0000 </r>
       <r>    2.6781    1.0000 </r>
       <r>    5.5567    1.0000 </r>
       <r>    6.0768    1.0000 </r>
       <r>    6.1672    1.0000 </r>
       <r>    6.2983    1.0000 </r>
       <r>    6.5150    1.0000 </r>
       <r>    6.6763    1.0000 </r>
       <r>    7.3200    1.0002 </r>
       <r>    7.3203    1.0002 </r>
       <r>    8.7743   -0.0000 </r>
       <r>    9.9043   -0.0000 </r>
       <r>   16.9546    0.0000 </r>
       <r>   30.4973    0.0000 </r>
       <r>   32.8979    0.0000 </r>
       <r>   33.4846    0.0000 </r>
       <r>   34.7320    0.0000 </r>
       <r>   36.2723    0.0000 </r>
       <r>   37.8287    0.0000 </r>
       <r>   40.4218    0.0000 </r>
       <r>   40.6703    0.0000 </r>
       <r>   41.4304    0.0000 </r>
       <r>   42.0827    0.0000 </r>
       <r>   42.8629    0.0000 </r>
       <r>   46.1066    0.0000 </r>
       <r>   46.4999    0.0000 </r>
       <r>   47.5770    0.0000 </r>
       <r>   47.7365    0.0000 </r>
       <r>   50.7507    0.0000 </r>
       <r>   53.2950    0.0000 </r>
       <r>   54.2035    0.0000 </r>
       <r>   56.2124    0.0000 </r>
       <r>   60.4112    0.0000 </r>
       <r>   62.7064    0.0000 </r>
       <r>   63.5100    0.0000 </r>
       <r>   63.6536    0.0000 </r>
       <r>   65.1612    0.0000 </r>
       <r>   66.6947    0.0000 </r>
       <r>   67.9006    0.0000 </r>
       <r>   69.8471    0.0000 </r>
      </set>
      <set comment="kpoint 19">
       <r>   -0.0880    1.0000 </r>
       <r>    3.2782    1.0000 </r>
       <r>    5.0589    1.0000 </r>
       <r>    5.2475    1.0000 </r>
       <r>    5.9386    1.0000 </r>
       <r>    6.5060    1.0000 </r>
       <r>    6.7906    1.0000 </r>
       <r>    7.0720    1.0000 </r>
       <r>    7.0886    1.0000 </r>
       <r>    7.2446    1.0000 </r>
       <r>    8.8482   -0.0000 </r>
       <r>   11.7305   -0.0000 </r>
       <r>   17.1500    0.0000 </r>
       <r>   26.9624    0.0000 </r>
       <r>   31.6460    0.0000 </r>
       <r>   31.7953    0.0000 </r>
       <r>   33.0393    0.0000 </r>
       <r>   33.7313    0.0000 </r>
       <r>   37.8669    0.0000 </r>
       <r>   39.3220    0.0000 </r>
       <r>   39.4831    0.0000 </r>
       <r>   40.8933    0.0000 </r>
       <r>   43.0454    0.0000 </r>
       <r>   44.9808    0.0000 </r>
       <r>   46.7557    0.0000 </r>
       <r>   47.3619    0.0000 </r>
       <r>   48.8345    0.0000 </r>
       <r>   51.5167    0.0000 </r>
       <r>   53.8326    0.0000 </r>
       <r>   56.1972    0.0000 </r>
       <r>   56.9567    0.0000 </r>
       <r>   58.4275    0.0000 </r>
       <r>   59.2314    0.0000 </r>
       <r>   61.0160    0.0000 </r>
       <r>   62.2857    0.0000 </r>
       <r>   62.9837    0.0000 </r>
       <r>   64.8156    0.0000 </r>
       <r>   67.6258    0.0000 </r>
       <r>   69.5102    0.0000 </r>
       <r>   70.1790    0.0000 </r>
      </set>
      <set comment="kpoint 20">
       <r>    1.2531    1.0000 </r>
       <r>    3.5607    1.0000 </r>
       <r>    4.1492    1.0000 </r>
       <r>    5.1303    1.0000 </r>
       <r>    5.7512    1.0000 </r>
       <r>    6.5316    1.0000 </r>
       <r>    6.6292    1.0000 </r>
       <r>    7.4812    1.0070 </r>
       <r>    7.7511    0.9567 </r>
       <r>    7.9559    0.2347 </r>
       <r>    8.9018   -0.0000 </r>
       <r>   13.6160    0.0000 </r>
       <r>   17.5953    0.0000 </r>
       <r>   22.9862    0.0000 </r>
       <r>   28.6473    0.0000 </r>
       <r>   29.2785    0.0000 </r>
       <r>   31.0453    0.0000 </r>
       <r>   33.5756    0.0000 </r>
       <r>   36.3345    0.0000 </r>
       <r>   38.3554    0.0000 </r>
       <r>   39.1172    0.0000 </r>
       <r>   41.3582    0.0000 </r>
       <r>   41.4820    0.0000 </r>
       <r>   45.6721    0.0000 </r>
       <r>   50.0017    0.0000 </r>
       <r>   51.5850    0.0000 </r>
       <r>   52.2075    0.0000 </r>
       <r>   53.0943    0.0000 </r>
       <r>   56.4173    0.0000 </r>
       <r>   57.3322    0.0000 </r>
       <r>   58.6679    0.0000 </r>
       <r>   60.1304    0.0000 </r>
       <r>   60.3546    0.0000 </r>
       <r>   60.7377    0.0000 </r>
       <r>   62.6342    0.0000 </r>
       <r>   63.5603    0.0000 </r>
       <r>   65.1600    0.0000 </r>
       <r>   68.2328    0.0000 </r>
       <r>   68.8152    0.0000 </r>
       <r>   70.0588    0.0000 </r>
      </set>
      <set comment="kpoint 21">
       <r>    2.3710    1.0000 </r>
       <r>    3.2406    1.0000 </r>
       <r>    3.6299    1.0000 </r>
       <r>    5.1521    1.0000 </r>
       <r>    6.1657    1.0000 </r>
       <r>    6.3625    1.0000 </r>
       <r>    6.4006    1.0000 </r>
       <r>    8.5812   -0.0000 </r>
       <r>    8.6695   -0.0000 </r>
       <r>    8.7092   -0.0000 </r>
       <r>    8.9542   -0.0000 </r>
       <r>   15.0528    0.0000 </r>
       <r>   17.9462    0.0000 </r>
       <r>   20.3653    0.0000 </r>
       <r>   25.4368    0.0000 </r>
       <r>   27.3456    0.0000 </r>
       <r>   28.5285    0.0000 </r>
       <r>   32.6932    0.0000 </r>
       <r>   35.1133    0.0000 </r>
       <r>   37.1032    0.0000 </r>
       <r>   40.2561    0.0000 </r>
       <r>   40.3375    0.0000 </r>
       <r>   42.7531    0.0000 </r>
       <r>   46.4059    0.0000 </r>
       <r>   51.4142    0.0000 </r>
       <r>   53.4938    0.0000 </r>
       <r>   55.1264    0.0000 </r>
       <r>   55.8819    0.0000 </r>
       <r>   57.3061    0.0000 </r>
       <r>   58.8780    0.0000 </r>
       <r>   60.2962    0.0000 </r>
       <r>   60.6476    0.0000 </r>
       <r>   61.6152    0.0000 </r>
       <r>   61.9505    0.0000 </r>
       <r>   63.3622    0.0000 </r>
       <r>   64.9539    0.0000 </r>
       <r>   67.8662    0.0000 </r>
       <r>   68.2628    0.0000 </r>
       <r>   69.0780    0.0000 </r>
       <r>   69.7064    0.0000 </r>
      </set>
      <set comment="kpoint 22">
       <r>    2.7275    1.0000 </r>
       <r>    2.9096    1.0000 </r>
       <r>    3.5011    1.0000 </r>
       <r>    5.2497    1.0000 </r>
       <r>    6.2100    1.0000 </r>
       <r>    6.4204    1.0000 </r>
       <r>    6.6783    1.0000 </r>
       <r>    8.8782   -0.0000 </r>
       <r>    9.1018   -0.0000 </r>
       <r>    9.2520   -0.0000 </r>
       <r>   10.4204   -0.0000 </r>
       <r>   13.9850    0.0000 </r>
       <r>   18.6896    0.0000 </r>
       <r>   20.4089    0.0000 </r>
       <r>   23.3590    0.0000 </r>
       <r>   25.8844    0.0000 </r>
       <r>   26.2582    0.0000 </r>
       <r>   32.0525    0.0000 </r>
       <r>   34.7109    0.0000 </r>
       <r>   36.2239    0.0000 </r>
       <r>   39.8830    0.0000 </r>
       <r>   41.7818    0.0000 </r>
       <r>   43.0719    0.0000 </r>
       <r>   47.3809    0.0000 </r>
       <r>   49.5557    0.0000 </r>
       <r>   55.0170    0.0000 </r>
       <r>   55.5252    0.0000 </r>
       <r>   58.6668    0.0000 </r>
       <r>   58.8827    0.0000 </r>
       <r>   60.2538    0.0000 </r>
       <r>   61.7977    0.0000 </r>
       <r>   62.0627    0.0000 </r>
       <r>   62.1119    0.0000 </r>
       <r>   64.1802    0.0000 </r>
       <r>   65.3686    0.0000 </r>
       <r>   66.4997    0.0000 </r>
       <r>   66.8426    0.0000 </r>
       <r>   68.4784    0.0000 </r>
       <r>   69.0864    0.0000 </r>
       <r>   69.2272    0.0000 </r>
      </set>
      <set comment="kpoint 23">
       <r>   -0.3957    1.0000 </r>
       <r>    3.1259    1.0000 </r>
       <r>    5.3001    1.0000 </r>
       <r>    5.3668    1.0000 </r>
       <r>    6.1679    1.0000 </r>
       <r>    6.2139    1.0000 </r>
       <r>    6.6990    1.0000 </r>
       <r>    6.9068    1.0000 </r>
       <r>    7.1477    1.0000 </r>
       <r>    7.3213    1.0002 </r>
       <r>    8.8026   -0.0000 </r>
       <r>   11.2333   -0.0000 </r>
       <r>   17.0810    0.0000 </r>
       <r>   28.6105    0.0000 </r>
       <r>   30.1289    0.0000 </r>
       <r>   33.2080    0.0000 </r>
       <r>   33.8225    0.0000 </r>
       <r>   35.8620    0.0000 </r>
       <r>   36.5447    0.0000 </r>
       <r>   37.7804    0.0000 </r>
       <r>   40.4749    0.0000 </r>
       <r>   43.5986    0.0000 </r>
       <r>   44.0041    0.0000 </r>
       <r>   44.4499    0.0000 </r>
       <r>   44.8684    0.0000 </r>
       <r>   46.3521    0.0000 </r>
       <r>   46.6806    0.0000 </r>
       <r>   51.6479    0.0000 </r>
       <r>   54.0285    0.0000 </r>
       <r>   55.0753    0.0000 </r>
       <r>   55.3849    0.0000 </r>
       <r>   58.4179    0.0000 </r>
       <r>   58.8669    0.0000 </r>
       <r>   62.0413    0.0000 </r>
       <r>   62.7190    0.0000 </r>
       <r>   63.0184    0.0000 </r>
       <r>   64.2196    0.0000 </r>
       <r>   67.9640    0.0000 </r>
       <r>   69.3127    0.0000 </r>
       <r>   69.5620    0.0000 </r>
      </set>
      <set comment="kpoint 24">
       <r>    0.7874    1.0000 </r>
       <r>    3.6952    1.0000 </r>
       <r>    4.4663    1.0000 </r>
       <r>    4.9254    1.0000 </r>
       <r>    5.8624    1.0000 </r>
       <r>    6.3021    1.0000 </r>
       <r>    6.8566    1.0000 </r>
       <r>    6.9858    1.0000 </r>
       <r>    7.5815    1.0259 </r>
       <r>    7.8696    0.5831 </r>
       <r>    8.8287   -0.0000 </r>
       <r>   12.9928   -0.0000 </r>
       <r>   17.4467    0.0000 </r>
       <r>   25.0069    0.0000 </r>
       <r>   27.6657    0.0000 </r>
       <r>   30.5106    0.0000 </r>
       <r>   32.7803    0.0000 </r>
       <r>   34.0158    0.0000 </r>
       <r>   36.9571    0.0000 </r>
       <r>   37.2286    0.0000 </r>
       <r>   39.0467    0.0000 </r>
       <r>   42.5727    0.0000 </r>
       <r>   44.3348    0.0000 </r>
       <r>   44.9149    0.0000 </r>
       <r>   47.3722    0.0000 </r>
       <r>   48.1691    0.0000 </r>
       <r>   50.2434    0.0000 </r>
       <r>   54.3388    0.0000 </r>
       <r>   56.0643    0.0000 </r>
       <r>   57.7697    0.0000 </r>
       <r>   57.9756    0.0000 </r>
       <r>   59.4598    0.0000 </r>
       <r>   59.6499    0.0000 </r>
       <r>   61.6140    0.0000 </r>
       <r>   61.7791    0.0000 </r>
       <r>   62.6831    0.0000 </r>
       <r>   64.5381    0.0000 </r>
       <r>   68.7191    0.0000 </r>
       <r>   69.3060    0.0000 </r>
       <r>   69.7251    0.0000 </r>
      </set>
      <set comment="kpoint 25">
       <r>    2.1168    1.0000 </r>
       <r>    3.6170    1.0000 </r>
       <r>    3.8179    1.0000 </r>
       <r>    4.9534    1.0000 </r>
       <r>    5.8451    1.0000 </r>
       <r>    6.2184    1.0000 </r>
       <r>    6.5898    1.0000 </r>
       <r>    7.5960    1.0291 </r>
       <r>    8.3903   -0.0011 </r>
       <r>    8.6957   -0.0000 </r>
       <r>    9.0078   -0.0000 </r>
       <r>   14.7450    0.0000 </r>
       <r>   18.0951    0.0000 </r>
       <r>   21.3772    0.0000 </r>
       <r>   25.8728    0.0000 </r>
       <r>   27.1994    0.0000 </r>
       <r>   30.7534    0.0000 </r>
       <r>   31.7895    0.0000 </r>
       <r>   36.5592    0.0000 </r>
       <r>   37.1963    0.0000 </r>
       <r>   38.6384    0.0000 </r>
       <r>   42.2865    0.0000 </r>
       <r>   44.3637    0.0000 </r>
       <r>   46.4590    0.0000 </r>
       <r>   49.3437    0.0000 </r>
       <r>   51.2237    0.0000 </r>
       <r>   53.5478    0.0000 </r>
       <r>   55.1750    0.0000 </r>
       <r>   56.5822    0.0000 </r>
       <r>   58.0456    0.0000 </r>
       <r>   60.2370    0.0000 </r>
       <r>   60.9507    0.0000 </r>
       <r>   61.0479    0.0000 </r>
       <r>   61.8840    0.0000 </r>
       <r>   63.2961    0.0000 </r>
       <r>   64.3275    0.0000 </r>
       <r>   66.8992    0.0000 </r>
       <r>   68.1601    0.0000 </r>
       <r>   69.1249    0.0000 </r>
       <r>   69.3391    0.0000 </r>
      </set>
      <set comment="kpoint 26">
       <r>    2.8265    1.0000 </r>
       <r>    3.2163    1.0000 </r>
       <r>    3.6068    1.0000 </r>
       <r>    5.1067    1.0000 </r>
       <r>    6.0597    1.0000 </r>
       <r>    6.3298    1.0000 </r>
       <r>    6.4349    1.0000 </r>
       <r>    8.5142   -0.0000 </r>
       <r>    8.7829   -0.0000 </r>
       <r>    8.9843   -0.0000 </r>
       <r>   10.1895   -0.0000 </r>
       <r>   15.2149    0.0000 </r>
       <r>   18.2759    0.0000 </r>
       <r>   20.4879    0.0000 </r>
       <r>   24.0840    0.0000 </r>
       <r>   24.7925    0.0000 </r>
       <r>   27.6604    0.0000 </r>
       <r>   30.8098    0.0000 </r>
       <r>   35.4984    0.0000 </r>
       <r>   36.7694    0.0000 </r>
       <r>   39.5976    0.0000 </r>
       <r>   42.4658    0.0000 </r>
       <r>   44.9395    0.0000 </r>
       <r>   47.0449    0.0000 </r>
       <r>   50.6309    0.0000 </r>
       <r>   52.5536    0.0000 </r>
       <r>   54.5804    0.0000 </r>
       <r>   56.6632    0.0000 </r>
       <r>   58.3744    0.0000 </r>
       <r>   59.6677    0.0000 </r>
       <r>   59.9491    0.0000 </r>
       <r>   61.4046    0.0000 </r>
       <r>   62.1604    0.0000 </r>
       <r>   64.1302    0.0000 </r>
       <r>   65.5157    0.0000 </r>
       <r>   66.3394    0.0000 </r>
       <r>   66.5685    0.0000 </r>
       <r>   68.4024    0.0000 </r>
       <r>   68.9549    0.0000 </r>
       <r>   70.9071    0.0000 </r>
      </set>
      <set comment="kpoint 27">
       <r>    2.9149    1.0000 </r>
       <r>    3.0281    1.0000 </r>
       <r>    3.6093    1.0000 </r>
       <r>    5.2085    1.0000 </r>
       <r>    6.0038    1.0000 </r>
       <r>    6.4893    1.0000 </r>
       <r>    6.5502    1.0000 </r>
       <r>    8.7748   -0.0000 </r>
       <r>    9.0567   -0.0000 </r>
       <r>    9.0859   -0.0000 </r>
       <r>   11.4292   -0.0000 </r>
       <r>   13.7482    0.0000 </r>
       <r>   19.5555    0.0000 </r>
       <r>   20.3260    0.0000 </r>
       <r>   23.4292    0.0000 </r>
       <r>   23.8892    0.0000 </r>
       <r>   25.9643    0.0000 </r>
       <r>   30.4731    0.0000 </r>
       <r>   35.0652    0.0000 </r>
       <r>   36.6099    0.0000 </r>
       <r>   39.9605    0.0000 </r>
       <r>   42.9068    0.0000 </r>
       <r>   44.6011    0.0000 </r>
       <r>   48.5512    0.0000 </r>
       <r>   48.9598    0.0000 </r>
       <r>   53.4244    0.0000 </r>
       <r>   55.3648    0.0000 </r>
       <r>   57.7526    0.0000 </r>
       <r>   59.1286    0.0000 </r>
       <r>   59.3954    0.0000 </r>
       <r>   61.7028    0.0000 </r>
       <r>   62.0213    0.0000 </r>
       <r>   62.6394    0.0000 </r>
       <r>   63.1874    0.0000 </r>
       <r>   65.3691    0.0000 </r>
       <r>   67.6814    0.0000 </r>
       <r>   67.8959    0.0000 </r>
       <r>   68.7088    0.0000 </r>
       <r>   69.2095    0.0000 </r>
       <r>   70.8810    0.0000 </r>
      </set>
      <set comment="kpoint 28">
       <r>    2.0470    1.0000 </r>
       <r>    3.9202    1.0000 </r>
       <r>    4.1718    1.0000 </r>
       <r>    4.4313    1.0000 </r>
       <r>    5.8790    1.0000 </r>
       <r>    5.9669    1.0000 </r>
       <r>    6.7295    1.0000 </r>
       <r>    7.1190    1.0000 </r>
       <r>    8.3866   -0.0012 </r>
       <r>    8.6230   -0.0000 </r>
       <r>    9.0550   -0.0000 </r>
       <r>   14.6149    0.0000 </r>
       <r>   18.1813    0.0000 </r>
       <r>   22.9591    0.0000 </r>
       <r>   23.8777    0.0000 </r>
       <r>   28.6183    0.0000 </r>
       <r>   30.2320    0.0000 </r>
       <r>   33.2085    0.0000 </r>
       <r>   34.0235    0.0000 </r>
       <r>   38.0303    0.0000 </r>
       <r>   40.4285    0.0000 </r>
       <r>   44.0421    0.0000 </r>
       <r>   45.3183    0.0000 </r>
       <r>   46.6772    0.0000 </r>
       <r>   46.7768    0.0000 </r>
       <r>   50.1302    0.0000 </r>
       <r>   51.0597    0.0000 </r>
       <r>   55.5450    0.0000 </r>
       <r>   56.6327    0.0000 </r>
       <r>   57.8080    0.0000 </r>
       <r>   60.1433    0.0000 </r>
       <r>   61.0211    0.0000 </r>
       <r>   61.2417    0.0000 </r>
       <r>   62.9185    0.0000 </r>
       <r>   63.0767    0.0000 </r>
       <r>   64.6841    0.0000 </r>
       <r>   64.9475    0.0000 </r>
       <r>   68.5676    0.0000 </r>
       <r>   68.6229    0.0000 </r>
       <r>   70.2338    0.0000 </r>
      </set>
      <set comment="kpoint 29">
       <r>    3.1649    1.0000 </r>
       <r>    3.6210    1.0000 </r>
       <r>    3.8749    1.0000 </r>
       <r>    4.6197    1.0000 </r>
       <r>    5.6914    1.0000 </r>
       <r>    6.2163    1.0000 </r>
       <r>    6.4018    1.0000 </r>
       <r>    7.6716    1.0321 </r>
       <r>    8.6006   -0.0000 </r>
       <r>    8.9554   -0.0000 </r>
       <r>   10.3561   -0.0000 </r>
       <r>   16.1614    0.0000 </r>
       <r>   18.9082    0.0000 </r>
       <r>   20.4241    0.0000 </r>
       <r>   22.2079    0.0000 </r>
       <r>   26.0405    0.0000 </r>
       <r>   28.5401    0.0000 </r>
       <r>   29.8831    0.0000 </r>
       <r>   32.7533    0.0000 </r>
       <r>   39.5451    0.0000 </r>
       <r>   41.1969    0.0000 </r>
       <r>   44.5831    0.0000 </r>
       <r>   46.5797    0.0000 </r>
       <r>   47.5557    0.0000 </r>
       <r>   49.0924    0.0000 </r>
       <r>   50.0489    0.0000 </r>
       <r>   53.1508    0.0000 </r>
       <r>   54.4393    0.0000 </r>
       <r>   56.8352    0.0000 </r>
       <r>   59.0165    0.0000 </r>
       <r>   59.9314    0.0000 </r>
       <r>   61.2965    0.0000 </r>
       <r>   62.4280    0.0000 </r>
       <r>   63.7093    0.0000 </r>
       <r>   65.5889    0.0000 </r>
       <r>   66.2651    0.0000 </r>
       <r>   67.3625    0.0000 </r>
       <r>   68.9043    0.0000 </r>
       <r>   69.8011    0.0000 </r>
       <r>   71.0137    0.0000 </r>
      </set>
      <set comment="kpoint 30">
       <r>    3.2555    1.0000 </r>
       <r>    3.5656    1.0000 </r>
       <r>    3.8784    1.0000 </r>
       <r>    4.9398    1.0000 </r>
       <r>    5.7234    1.0000 </r>
       <r>    6.0229    1.0000 </r>
       <r>    6.6210    1.0000 </r>
       <r>    8.3849   -0.0013 </r>
       <r>    8.5586   -0.0000 </r>
       <r>    9.0015   -0.0000 </r>
       <r>   12.0275   -0.0000 </r>
       <r>   15.1578    0.0000 </r>
       <r>   19.4539    0.0000 </r>
       <r>   21.0301    0.0000 </r>
       <r>   21.3691    0.0000 </r>
       <r>   23.9833    0.0000 </r>
       <r>   26.9082    0.0000 </r>
       <r>   27.8749    0.0000 </r>
       <r>   32.1192    0.0000 </r>
       <r>   40.2238    0.0000 </r>
       <r>   41.9701    0.0000 </r>
       <r>   43.8755    0.0000 </r>
       <r>   47.5404    0.0000 </r>
       <r>   48.2953    0.0000 </r>
       <r>   50.6463    0.0000 </r>
       <r>   51.3260    0.0000 </r>
       <r>   53.1709    0.0000 </r>
       <r>   55.1208    0.0000 </r>
       <r>   57.8059    0.0000 </r>
       <r>   58.3938    0.0000 </r>
       <r>   59.2261    0.0000 </r>
       <r>   61.7398    0.0000 </r>
       <r>   62.1012    0.0000 </r>
       <r>   63.0504    0.0000 </r>
       <r>   66.8839    0.0000 </r>
       <r>   67.2633    0.0000 </r>
       <r>   68.8968    0.0000 </r>
       <r>   69.2194    0.0000 </r>
       <r>   69.9833    0.0000 </r>
       <r>   71.0812    0.0000 </r>
      </set>
      <set comment="kpoint 31">
       <r>    3.5144    1.0000 </r>
       <r>    3.9556    1.0000 </r>
       <r>    4.2674    1.0000 </r>
       <r>    4.3508    1.0000 </r>
       <r>    5.5617    1.0000 </r>
       <r>    5.8982    1.0000 </r>
       <r>    6.6202    1.0000 </r>
       <r>    7.9697    0.1885 </r>
       <r>    8.4467   -0.0003 </r>
       <r>    8.9826   -0.0000 </r>
       <r>   12.1896   -0.0000 </r>
       <r>   17.1096    0.0000 </r>
       <r>   17.9942    0.0000 </r>
       <r>   19.9673    0.0000 </r>
       <r>   21.9662    0.0000 </r>
       <r>   25.3641    0.0000 </r>
       <r>   25.5481    0.0000 </r>
       <r>   28.7214    0.0000 </r>
       <r>   29.6286    0.0000 </r>
       <r>   41.4022    0.0000 </r>
       <r>   44.0801    0.0000 </r>
       <r>   46.2871    0.0000 </r>
       <r>   46.7769    0.0000 </r>
       <r>   48.5968    0.0000 </r>
       <r>   49.3518    0.0000 </r>
       <r>   50.9935    0.0000 </r>
       <r>   52.8205    0.0000 </r>
       <r>   54.6630    0.0000 </r>
       <r>   55.1470    0.0000 </r>
       <r>   57.7923    0.0000 </r>
       <r>   59.3277    0.0000 </r>
       <r>   61.5806    0.0000 </r>
       <r>   61.8391    0.0000 </r>
       <r>   63.1410    0.0000 </r>
       <r>   66.6324    0.0000 </r>
       <r>   67.7181    0.0000 </r>
       <r>   67.7422    0.0000 </r>
       <r>   69.8977    0.0000 </r>
       <r>   70.9627    0.0000 </r>
       <r>   71.3062    0.0000 </r>
      </set>
      <set comment="kpoint 32">
       <r>    3.5237    1.0000 </r>
       <r>    4.1084    1.0000 </r>
       <r>    4.1797    1.0000 </r>
       <r>    4.6278    1.0000 </r>
       <r>    5.5483    1.0000 </r>
       <r>    5.6807    1.0000 </r>
       <r>    6.7805    1.0000 </r>
       <r>    8.3550   -0.0024 </r>
       <r>    8.3859   -0.0012 </r>
       <r>    8.6777   -0.0000 </r>
       <r>   14.0188    0.0000 </r>
       <r>   15.3593    0.0000 </r>
       <r>   17.5474    0.0000 </r>
       <r>   21.6786    0.0000 </r>
       <r>   21.9238    0.0000 </r>
       <r>   24.1757    0.0000 </r>
       <r>   25.4328    0.0000 </r>
       <r>   26.9788    0.0000 </r>
       <r>   29.0213    0.0000 </r>
       <r>   42.3220    0.0000 </r>
       <r>   44.6834    0.0000 </r>
       <r>   46.2376    0.0000 </r>
       <r>   47.3657    0.0000 </r>
       <r>   49.3818    0.0000 </r>
       <r>   50.4662    0.0000 </r>
       <r>   51.5913    0.0000 </r>
       <r>   53.2727    0.0000 </r>
       <r>   53.7037    0.0000 </r>
       <r>   54.6297    0.0000 </r>
       <r>   57.1418    0.0000 </r>
       <r>   58.6226    0.0000 </r>
       <r>   59.6192    0.0000 </r>
       <r>   62.4080    0.0000 </r>
       <r>   62.5841    0.0000 </r>
       <r>   66.9813    0.0000 </r>
       <r>   67.9076    0.0000 </r>
       <r>   69.7872    0.0000 </r>
       <r>   69.9490    0.0000 </r>
       <r>   70.6253    0.0000 </r>
       <r>   71.2886    0.0000 </r>
      </set>
      <set comment="kpoint 33">
       <r>   -1.1330    1.0000 </r>
       <r>    2.3445    1.0000 </r>
       <r>    5.5407    1.0000 </r>
       <r>    6.0599    1.0000 </r>
       <r>    6.0599    1.0000 </r>
       <r>    6.4184    1.0000 </r>
       <r>    6.4185    1.0000 </r>
       <r>    6.6512    1.0000 </r>
       <r>    7.5801    1.0255 </r>
       <r>    7.5801    1.0256 </r>
       <r>    8.7017   -0.0000 </r>
       <r>    8.7017   -0.0000 </r>
       <r>   17.9974    0.0000 </r>
       <r>   30.6343    0.0000 </r>
       <r>   32.4346    0.0000 </r>
       <r>   34.3474    0.0000 </r>
       <r>   37.7207    0.0000 </r>
       <r>   37.7207    0.0000 </r>
       <r>   38.3385    0.0000 </r>
       <r>   38.3387    0.0000 </r>
       <r>   40.9340    0.0000 </r>
[...]
       <r>   23.4829    0.0000 </r>
       <r>   24.2821    0.0000 </r>
       <r>   29.3841    0.0000 </r>
       <r>   30.5855    0.0000 </r>
       <r>   35.1754    0.0000 </r>
       <r>   36.2853    0.0000 </r>
       <r>   38.3613    0.0000 </r>
       <r>   39.9190    0.0000 </r>
       <r>   44.7792    0.0000 </r>
       <r>   45.1764    0.0000 </r>
       <r>   54.4184    0.0000 </r>
       <r>   54.9850    0.0000 </r>
       <r>   56.0672    0.0000 </r>
       <r>   57.7510    0.0000 </r>
       <r>   58.9484    0.0000 </r>
       <r>   59.4692    0.0000 </r>
       <r>   61.1630    0.0000 </r>
       <r>   62.1159    0.0000 </r>
       <r>   63.9027    0.0000 </r>
       <r>   64.2203    0.0000 </r>
       <r>   65.7666    0.0000 </r>
       <r>   66.4074    0.0000 </r>
       <r>   67.8346    0.0000 </r>
       <r>   68.0928    0.0000 </r>
       <r>   68.8609    0.0000 </r>
       <r>   70.0557    0.0000 </r>
      </set>
      <set comment="kpoint 95">
       <r>    3.5716    1.0000 </r>
       <r>    3.6348    1.0000 </r>
       <r>    4.6807    1.0000 </r>
       <r>    4.9254    1.0000 </r>
       <r>    5.3475    1.0000 </r>
       <r>    5.5926    1.0000 </r>
       <r>    6.9278    1.0000 </r>
       <r>    7.1559    1.0000 </r>
       <r>    8.8273   -0.0000 </r>
       <r>    9.0269   -0.0000 </r>
       <r>   13.2042   -0.0000 </r>
       <r>   13.7703    0.0000 </r>
       <r>   19.6663    0.0000 </r>
       <r>   20.1385    0.0000 </r>
       <r>   21.7229    0.0000 </r>
       <r>   22.1572    0.0000 </r>
       <r>   29.5765    0.0000 </r>
       <r>   31.3176    0.0000 </r>
       <r>   35.1874    0.0000 </r>
       <r>   36.7261    0.0000 </r>
       <r>   38.2001    0.0000 </r>
       <r>   39.4353    0.0000 </r>
       <r>   46.6375    0.0000 </r>
       <r>   47.0628    0.0000 </r>
       <r>   51.5032    0.0000 </r>
       <r>   51.6047    0.0000 </r>
       <r>   58.4693    0.0000 </r>
       <r>   59.1176    0.0000 </r>
       <r>   59.1762    0.0000 </r>
       <r>   60.5074    0.0000 </r>
       <r>   62.0640    0.0000 </r>
       <r>   62.2674    0.0000 </r>
       <r>   62.3247    0.0000 </r>
       <r>   62.4255    0.0000 </r>
       <r>   65.8700    0.0000 </r>
       <r>   66.0376    0.0000 </r>
       <r>   66.9955    0.0000 </r>
       <r>   67.3672    0.0000 </r>
       <r>   68.1203    0.0000 </r>
       <r>   69.5593    0.0000 </r>
      </set>
      <set comment="kpoint 96">
       <r>    3.7852    1.0000 </r>
       <r>    3.9339    1.0000 </r>
       <r>    4.5737    1.0000 </r>
       <r>    4.6537    1.0000 </r>
       <r>    5.3971    1.0000 </r>
       <r>    5.5224    1.0000 </r>
       <r>    7.0124    1.0000 </r>
       <r>    7.1858    1.0000 </r>
       <r>    8.7927   -0.0000 </r>
       <r>    8.8680   -0.0000 </r>
       <r>   15.0780    0.0000 </r>
       <r>   15.2199    0.0000 </r>
       <r>   17.9835    0.0000 </r>
       <r>   18.3671    0.0000 </r>
       <r>   21.0806    0.0000 </r>
       <r>   21.5331    0.0000 </r>
       <r>   31.2380    0.0000 </r>
       <r>   32.1617    0.0000 </r>
       <r>   34.4130    0.0000 </r>
       <r>   34.6480    0.0000 </r>
       <r>   37.9989    0.0000 </r>
       <r>   38.8832    0.0000 </r>
       <r>   47.9572    0.0000 </r>
       <r>   48.6479    0.0000 </r>
       <r>   52.6543    0.0000 </r>
       <r>   53.0717    0.0000 </r>
       <r>   55.9583    0.0000 </r>
       <r>   56.3219    0.0000 </r>
       <r>   60.0571    0.0000 </r>
       <r>   61.4361    0.0000 </r>
       <r>   62.1341    0.0000 </r>
       <r>   62.4923    0.0000 </r>
       <r>   63.5099    0.0000 </r>
       <r>   63.7494    0.0000 </r>
       <r>   63.9352    0.0000 </r>
       <r>   65.4878    0.0000 </r>
       <r>   67.3735    0.0000 </r>
       <r>   69.4593    0.0000 </r>
       <r>   69.9617    0.0000 </r>
       <r>   70.3346    0.0000 </r>
      </set>
     </set>
    </set>
   </array>
  </eigenvalues>
  <separator name="orbital magnetization" >
   <v name="MAGDIPOLOUT">      0.00000000      0.00000000      0.00000000</v>
  </separator>
  <dos>
   <i name="efermi">      7.88933847 </i>
   <total>
    <array>
     <dimension dim="1">gridpoints</dimension>
     <dimension dim="2">spin</dimension>
     <field>energy</field>
     <field>total</field>
     <field>integrated</field>
     <set>
      <set comment="spin 1">
       <r>    -5.1739     0.0000     0.0000 </r>
       <r>    -4.9035     0.0000     0.0000 </r>
       <r>    -4.6331     0.0000     0.0000 </r>
       <r>    -4.3628     0.0000     0.0000 </r>
       <r>    -4.0924     0.0000     0.0000 </r>
       <r>    -3.8220     0.0000     0.0000 </r>
       <r>    -3.5517     0.0000     0.0000 </r>
       <r>    -3.2813    -0.0000    -0.0000 </r>
       <r>    -3.0109    -0.0000    -0.0000 </r>
       <r>    -2.7406    -0.0000    -0.0000 </r>
       <r>    -2.4702    -0.0000    -0.0000 </r>
       <r>    -2.1999    -0.0000    -0.0000 </r>
       <r>    -1.9295    -0.0000    -0.0000 </r>
       <r>    -1.6591    -0.0004    -0.0001 </r>
       <r>    -1.3888     0.0083     0.0021 </r>
       <r>    -1.1184     0.0498     0.0156 </r>
       <r>    -0.8480     0.0921     0.0405 </r>
       <r>    -0.5777     0.0586     0.0563 </r>
       <r>    -0.3073     0.1392     0.0940 </r>
       <r>    -0.0369     0.1716     0.1404 </r>
       <r>     0.2334     0.1706     0.1865 </r>
       <r>     0.5038     0.0900     0.2108 </r>
       <r>     0.7742     0.2148     0.2689 </r>
       <r>     1.0445     0.3138     0.3538 </r>
       <r>     1.3149     0.2577     0.4234 </r>
       <r>     1.5852     0.3053     0.5060 </r>
       <r>     1.8556     0.2058     0.5616 </r>
       <r>     2.1260     0.4866     0.6932 </r>
       <r>     2.3963     0.9478     0.9494 </r>
       <r>     2.6667     1.4902     1.3523 </r>
       <r>     2.9371     1.6508     1.7986 </r>
       <r>     3.2074     2.7642     2.5460 </r>
       <r>     3.4778     2.1256     3.1207 </r>
       <r>     3.7482     2.9017     3.9052 </r>
       <r>     4.0185     1.8725     4.4115 </r>
       <r>     4.2889     2.7292     5.1493 </r>
       <r>     4.5593     2.8192     5.9115 </r>
       <r>     4.8296     2.9019     6.6961 </r>
       <r>     5.1000     2.4653     7.3626 </r>
       <r>     5.3703     1.7978     7.8487 </r>
       <r>     5.6407     2.8979     8.6322 </r>
       <r>     5.9111     3.6678     9.6238 </r>
       <r>     6.1814     3.5346    10.5795 </r>
       <r>     6.4518     3.7119    11.5830 </r>
       <r>     6.7222     3.9051    12.6388 </r>
       <r>     6.9925     3.4687    13.5767 </r>
       <r>     7.2629     2.5965    14.2787 </r>
       <r>     7.5333     2.5975    14.9809 </r>
       <r>     7.8036     2.9590    15.7809 </r>
       <r>     8.0740     2.1632    16.3658 </r>
       <r>     8.3444     2.4914    17.0394 </r>
       <r>     8.6147     4.2532    18.1893 </r>
       <r>     8.8851     4.7468    19.4727 </r>
       <r>     9.1554     4.6016    20.7168 </r>
       <r>     9.4258     1.8169    21.2080 </r>
       <r>     9.6962     0.1614    21.2516 </r>
       <r>     9.9665     0.2195    21.3110 </r>
       <r>    10.2369     1.0650    21.5989 </r>
       <r>    10.5073     0.7204    21.7937 </r>
       <r>    10.7776     0.3485    21.8879 </r>
       <r>    11.0480     0.5706    22.0422 </r>
       <r>    11.3184     0.5396    22.1881 </r>
       <r>    11.5887     0.3014    22.2695 </r>
       <r>    11.8591     0.1764    22.3172 </r>
       <r>    12.1294     0.7807    22.5283 </r>
       <r>    12.3998     0.6342    22.6998 </r>
       <r>    12.6702     0.4043    22.8091 </r>
       <r>    12.9405     0.2372    22.8732 </r>
       <r>    13.2109     0.3832    22.9768 </r>
       <r>    13.4813     0.4195    23.0902 </r>
       <r>    13.7516     0.4771    23.2192 </r>
       <r>    14.0220     0.2959    23.2992 </r>
       <r>    14.2924     0.2682    23.3718 </r>
       <r>    14.5627     0.2887    23.4498 </r>
       <r>    14.8331     0.3721    23.5504 </r>
       <r>    15.1035     0.3430    23.6432 </r>
       <r>    15.3738     0.6095    23.8080 </r>
       <r>    15.6442     0.2085    23.8643 </r>
       <r>    15.9145     0.0905    23.8888 </r>
       <r>    16.1849     0.0931    23.9139 </r>
       <r>    16.4553     0.1597    23.9571 </r>
       <r>    16.7256     0.1605    24.0005 </r>
       <r>    16.9960     0.1983    24.0541 </r>
       <r>    17.2664     0.2433    24.1199 </r>
       <r>    17.5367     0.2963    24.2000 </r>
       <r>    17.8071     0.3216    24.2870 </r>
       <r>    18.0775     0.3572    24.3835 </r>
       <r>    18.3478     0.6950    24.5715 </r>
       <r>    18.6182     0.9318    24.8234 </r>
       <r>    18.8886     0.7214    25.0184 </r>
       <r>    19.1589     0.7380    25.2180 </r>
       <r>    19.4293     0.2858    25.2952 </r>
       <r>    19.6996     0.7092    25.4870 </r>
       <r>    19.9700     0.6095    25.6518 </r>
       <r>    20.2404     0.8443    25.8800 </r>
       <r>    20.5107     0.7676    26.0876 </r>
       <r>    20.7811     0.5159    26.2271 </r>
       <r>    21.0515     0.6617    26.4060 </r>
       <r>    21.3218     0.7475    26.6081 </r>
       <r>    21.5922     0.8052    26.8257 </r>
       <r>    21.8626     0.5614    26.9775 </r>
       <r>    22.1329     0.6971    27.1660 </r>
       <r>    22.4033     0.6170    27.3328 </r>
       <r>    22.6737     0.6445    27.5070 </r>
       <r>    22.9440     0.5977    27.6687 </r>
       <r>    23.2144     0.3139    27.7535 </r>
       <r>    23.4847     0.6724    27.9353 </r>
       <r>    23.7551     0.4633    28.0606 </r>
       <r>    24.0255     0.6861    28.2461 </r>
       <r>    24.2958     0.7222    28.4413 </r>
       <r>    24.5662     0.4933    28.5747 </r>
       <r>    24.8366     0.6857    28.7601 </r>
       <r>    25.1069     0.8759    28.9969 </r>
       <r>    25.3773     0.9077    29.2423 </r>
       <r>    25.6477     0.6448    29.4167 </r>
       <r>    25.9180     0.9706    29.6791 </r>
       <r>    26.1884     0.9019    29.9230 </r>
       <r>    26.4588     0.6822    30.1074 </r>
       <r>    26.7291     0.7898    30.3209 </r>
       <r>    26.9995     1.0092    30.5938 </r>
       <r>    27.2698     0.5697    30.7478 </r>
       <r>    27.5402     0.7792    30.9585 </r>
       <r>    27.8106     1.3457    31.3223 </r>
       <r>    28.0809     1.1059    31.6213 </r>
       <r>    28.3513     0.6072    31.7854 </r>
       <r>    28.6217     0.8683    32.0202 </r>
       <r>    28.8920     0.6278    32.1899 </r>
       <r>    29.1624     0.7225    32.3853 </r>
       <r>    29.4328     1.2742    32.7298 </r>
       <r>    29.7031     0.8772    32.9669 </r>
       <r>    29.9735     0.7652    33.1738 </r>
       <r>    30.2439     0.7112    33.3661 </r>
       <r>    30.5142     0.9953    33.6352 </r>
       <r>    30.7846     1.0307    33.9139 </r>
       <r>    31.0549     0.8721    34.1497 </r>
       <r>    31.3253     0.4192    34.2630 </r>
       <r>    31.5957     0.4244    34.3777 </r>
       <r>    31.8660     0.7529    34.5813 </r>
       <r>    32.1364     1.1526    34.8929 </r>
       <r>    32.4068     0.6277    35.0626 </r>
       <r>    32.6771     0.5775    35.2187 </r>
       <r>    32.9475     0.7569    35.4234 </r>
       <r>    33.2179     0.7903    35.6370 </r>
       <r>    33.4882     0.7524    35.8405 </r>
       <r>    33.7586     0.5298    35.9837 </r>
       <r>    34.0290     0.5524    36.1331 </r>
       <r>    34.2993     0.4828    36.2636 </r>
       <r>    34.5697     0.7421    36.4642 </r>
       <r>    34.8400     0.9856    36.7307 </r>
       <r>    35.1104     0.6998    36.9199 </r>
       <r>    35.3808     0.9479    37.1762 </r>
       <r>    35.6511     0.8254    37.3994 </r>
       <r>    35.9215     0.8502    37.6292 </r>
       <r>    36.1919     0.6521    37.8055 </r>
       <r>    36.4622     0.8194    38.0271 </r>
       <r>    36.7326     0.9469    38.2831 </r>
       <r>    37.0030     0.8955    38.5252 </r>
       <r>    37.2733     1.0903    38.8200 </r>
       <r>    37.5437     0.6777    39.0032 </r>
       <r>    37.8140     0.6874    39.1891 </r>
       <r>    38.0844     0.9459    39.4448 </r>
       <r>    38.3548     1.0651    39.7328 </r>
       <r>    38.6251     1.0009    40.0034 </r>
       <r>    38.8955     0.6472    40.1784 </r>
       <r>    39.1659     0.8432    40.4063 </r>
       <r>    39.4362     0.7109    40.5985 </r>
       <r>    39.7066     0.9487    40.8550 </r>
       <r>    39.9770     0.6698    41.0361 </r>
       <r>    40.2473     0.5336    41.1804 </r>
       <r>    40.5177     0.8745    41.4168 </r>
       <r>    40.7881     0.9437    41.6720 </r>
       <r>    41.0584     0.7944    41.8867 </r>
       <r>    41.3288     0.9503    42.1437 </r>
       <r>    41.5991     0.9449    42.3992 </r>
       <r>    41.8695     0.7029    42.5892 </r>
       <r>    42.1399     0.8741    42.8255 </r>
       <r>    42.4102     0.7906    43.0393 </r>
       <r>    42.6806     1.3053    43.3922 </r>
       <r>    42.9510     0.7504    43.5951 </r>
       <r>    43.2213     0.5505    43.7439 </r>
       <r>    43.4917     0.5710    43.8983 </r>
       <r>    43.7621     0.7504    44.1012 </r>
       <r>    44.0324     0.7347    44.2998 </r>
       <r>    44.3028     0.8821    44.5383 </r>
       <r>    44.5732     0.9137    44.7853 </r>
       <r>    44.8435     1.3089    45.1392 </r>
       <r>    45.1139     1.2205    45.4691 </r>
       <r>    45.3842     1.0357    45.7491 </r>
       <r>    45.6546     0.8640    45.9828 </r>
       <r>    45.9250     0.9207    46.2317 </r>
       <r>    46.1953     0.7548    46.4358 </r>
       <r>    46.4657     1.1181    46.7380 </r>
       <r>    46.7361     1.3742    47.1096 </r>
       <r>    47.0064     1.0327    47.3888 </r>
       <r>    47.2768     0.7428    47.5896 </r>
       <r>    47.5472     1.3899    47.9654 </r>
       <r>    47.8175     1.2318    48.2984 </r>
       <r>    48.0879     0.8550    48.5296 </r>
       <r>    48.3583     0.7825    48.7412 </r>
       <r>    48.6286     0.8067    48.9593 </r>
       <r>    48.8990     0.5580    49.1101 </r>
       <r>    49.1693     0.6913    49.2970 </r>
       <r>    49.4397     1.0916    49.5921 </r>
       <r>    49.7101     0.4947    49.7259 </r>
       <r>    49.9804     0.5116    49.8642 </r>
       <r>    50.2508     1.0846    50.1574 </r>
       <r>    50.5212     0.8656    50.3915 </r>
       <r>    50.7915     1.4317    50.7785 </r>
       <r>    51.0619     0.8066    50.9966 </r>
       <r>    51.3323     0.8295    51.2209 </r>
       <r>    51.6026     1.3501    51.5859 </r>
       <r>    51.8730     1.5735    52.0113 </r>
       <r>    52.1434     0.9085    52.2569 </r>
       <r>    52.4137     0.8522    52.4873 </r>
       <r>    52.6841     0.6788    52.6709 </r>
       <r>    52.9544     0.5958    52.8320 </r>
       <r>    53.2248     1.1338    53.1385 </r>
       <r>    53.4952     1.2964    53.4890 </r>
       <r>    53.7655     1.1793    53.8079 </r>
       <r>    54.0359     1.2534    54.1467 </r>
       <r>    54.3063     0.8618    54.3797 </r>
       <r>    54.5766     1.3549    54.7460 </r>
       <r>    54.8470     1.0019    55.0169 </r>
       <r>    55.1174     1.1405    55.3253 </r>
       <r>    55.3877     1.4419    55.7151 </r>
       <r>    55.6581     1.0445    55.9975 </r>
       <r>    55.9285     0.9979    56.2673 </r>
       <r>    56.1988     1.2035    56.5927 </r>
       <r>    56.4692     1.0882    56.8869 </r>
       <r>    56.7395     1.2622    57.2281 </r>
       <r>    57.0099     1.0012    57.4988 </r>
       <r>    57.2803     1.0278    57.7767 </r>
       <r>    57.5506     1.1436    58.0859 </r>
       <r>    57.8210     1.5327    58.5003 </r>
       <r>    58.0914     1.6377    58.9430 </r>
       <r>    58.3617     0.8764    59.1800 </r>
       <r>    58.6321     1.1035    59.4783 </r>
       <r>    58.9025     1.6825    59.9332 </r>
       <r>    59.1728     1.5608    60.3552 </r>
       <r>    59.4432     1.5566    60.7760 </r>
       <r>    59.7136     1.6154    61.2128 </r>
       <r>    59.9839     2.0259    61.7605 </r>
       <r>    60.2543     1.7182    62.2251 </r>
       <r>    60.5246     1.3402    62.5874 </r>
       <r>    60.7950     1.4497    62.9794 </r>
       <r>    61.0654     1.7941    63.4644 </r>
       <r>    61.3357     2.0516    64.0191 </r>
       <r>    61.6061     2.6622    64.7388 </r>
       <r>    61.8765     2.4236    65.3941 </r>
       <r>    62.1468     2.4728    66.0627 </r>
       <r>    62.4172     1.9808    66.5982 </r>
       <r>    62.6876     1.8531    67.0992 </r>
       <r>    62.9579     1.4030    67.4785 </r>
       <r>    63.2283     1.0919    67.7738 </r>
       <r>    63.4986     1.2100    68.1009 </r>
       <r>    63.7690     2.1349    68.6781 </r>
       <r>    64.0394     1.8263    69.1719 </r>
       <r>    64.3097     1.5078    69.5795 </r>
       <r>    64.5801     1.6685    70.0306 </r>
       <r>    64.8505     1.3150    70.3861 </r>
       <r>    65.1208     1.3019    70.7381 </r>
       <r>    65.3912     1.8972    71.2511 </r>
       <r>    65.6616     1.8366    71.7476 </r>
       <r>    65.9319     0.8959    71.9898 </r>
       <r>    66.2023     0.9949    72.2588 </r>
       <r>    66.4727     1.5089    72.6668 </r>
       <r>    66.7430     1.5921    73.0972 </r>
       <r>    67.0134     2.3942    73.7445 </r>
       <r>    67.2837     1.3026    74.0967 </r>
       <r>    67.5541     1.7676    74.5746 </r>
       <r>    67.8245     1.5086    74.9825 </r>
       <r>    68.0948     1.4580    75.3767 </r>
       <r>    68.3652     1.5492    75.7955 </r>
       <r>    68.6356     1.4541    76.1887 </r>
       <r>    68.9059     1.6001    76.6213 </r>
       <r>    69.1763     1.7719    77.1003 </r>
       <r>    69.4467     1.2787    77.4460 </r>
       <r>    69.7170     1.0054    77.7179 </r>
       <r>    69.9874     1.8399    78.2153 </r>
       <r>    70.2578     1.5472    78.6336 </r>
       <r>    70.5281     1.2670    78.9762 </r>
       <r>    70.7985     0.7578    79.1811 </r>
       <r>    71.0688     1.1678    79.4968 </r>
       <r>    71.3392     1.0984    79.7937 </r>
       <r>    71.6096     0.5182    79.9338 </r>
       <r>    71.8799     0.1763    79.9815 </r>
       <r>    72.1503     0.0118    79.9847 </r>
       <r>    72.4207     0.0569    80.0001 </r>
       <r>    72.6910    -0.0000    80.0001 </r>
       <r>    72.9614    -0.0003    80.0000 </r>
       <r>    73.2318    -0.0000    80.0000 </r>
       <r>    73.5021    -0.0000    80.0000 </r>
       <r>    73.7725     0.0000    80.0000 </r>
       <r>    74.0429     0.0000    80.0000 </r>
       <r>    74.3132     0.0000    80.0000 </r>
       <r>    74.5836     0.0000    80.0000 </r>
       <r>    74.8539     0.0000    80.0000 </r>
       <r>    75.1243     0.0000    80.0000 </r>
       <r>    75.3947     0.0000    80.0000 </r>
       <r>    75.6650     0.0000    80.0000 </r>
       <r>    75.9354     0.0000    80.0000 </r>
      </set>
     </set>
    </array>
   </total>
  </dos>
 </calculation>
 <structure name="finalpos" >
  <crystal>
   <varray name="basis" >
    <v>       2.33000000       0.00000000       0.00000000 </v>
    <v>      -1.16500000       2.01783919       0.00000000 </v>
    <v>       0.00000000       0.00000000       3.97700000 </v>
   </varray>
   <i name="volume">     18.69812526 </i>
   <varray name="rec_basis" >
    <v>       0.42918455       0.24778982       0.00000000 </v>
    <v>       0.00000000       0.49557963       0.00000000 </v>
    <v>       0.00000000       0.00000000       0.25144581 </v>
   </varray>
  </crystal>
  <varray name="positions" >
   <v>       0.00000000       0.00000000       0.00000000 </v>
   <v>       0.33333333       0.66666667       0.50000000 </v>
  </varray>
 </structure>
</modeling>
