unknown system                          
   1.00000000000000     
     3.374435    0.000000    0.000000
     0.000000    3.374435    0.000000
     0.000000    0.000000    3.374435
   Cu
     4
Direct
  0.000000  0.000000  0.000000
  0.500000  0.500000  0.000000
  0.500000  0.000000  0.500000
  0.000000  0.500000  0.500000
 
   32   32   32
  671.91      638.47      547.48      422.49      291.39      177.33      94.027      44.750      23.234      16.588    
  13.070      10.780      9.4440      8.7069      8.2738      7.9986      7.8944      7.9986      8.2738      8.7069    
  9.4440      10.780      13.070      16.588      23.234      44.750      94.027      177.33      291.39      422.49    
  547.48      638.47      638.47      606.59      519.82      400.64      275.75      167.36      88.599      42.440    
  22.594      16.428      13.006      10.789      9.4987      8.7857      8.3660      8.0993      7.9986      8.0993    
  8.3660      8.7857      9.4987      10.789      13.006      16.428      22.594      42.440      88.599      167.36    
  275.75      400.64      519.82      606.59      547.48      519.82      444.53      341.25      233.39      140.56    
  74.217      36.486      21.014      15.973      12.826      10.815      9.6473      8.9974      8.6111      8.3660    
  8.2738      8.3660      8.6111      8.9974      9.6473      10.815      12.826      15.973      21.014      36.486    
  74.217      140.56      233.39      341.25      444.53      519.82      422.49      400.64      341.25      260.04    
  175.97      104.86      55.686      29.270      19.232      15.300      12.580      10.875      9.8879      9.3322    
  8.9974      8.7857      8.7069      8.7857      8.9974      9.3322      9.8879      10.875      12.580      15.300    
  19.232      29.270      55.686      104.86      175.97      260.04      341.25      400.64      291.39      275.75    
  233.39      175.97      117.54      69.728      38.505      23.243      17.709      14.538      12.365      11.045    
  10.298      9.8879      9.6473      9.4987      9.4440      9.4987      9.6473      9.8879      10.298      11.045    
  12.365      14.538      17.709      23.243      38.505      69.728      117.54      175.97      233.39      275.75    
  177.33      167.36      140.56      104.86      69.728      42.586      26.496      19.536      16.263      13.857    
  12.319      11.462      11.045      10.875      10.815      10.789      10.780      10.789      10.815      10.875    
  11.045      11.462      12.319      13.857      16.263      19.536      26.496      42.586      69.728      104.86    
  140.56      167.36      94.027      88.599      74.217      55.686      38.505      26.496      20.295      17.279    
  14.989      13.444      12.613      12.319      12.365      12.580      12.826      13.006      13.070      13.006    
  12.826      12.580      12.365      12.319      12.613      13.444      14.989      17.279      20.295      26.496    
  38.505      55.686      74.217      88.599      44.750      42.440      36.486      29.270      23.243      19.536    
  17.279      15.415      14.117      13.480      13.444      13.857      14.538      15.300      15.973      16.428    
  16.588      16.428      15.973      15.300      14.538      13.857      13.444      13.480      14.117      15.415    
  17.279      19.536      23.243      29.270      36.486      42.440      23.234      22.594      21.014      19.232    
  17.709      16.263      14.989      14.117      13.808      14.117      14.989      16.263      17.709      19.232    
  21.014      22.594      23.234      22.594      21.014      19.232      17.709      16.263      14.989      14.117    
  13.808      14.117      14.989      16.263      17.709      19.232      21.014      22.594      16.588      16.428    
  15.973      15.300      14.538      13.857      13.444      13.480      14.117      15.415      17.279      19.536    
  23.243      29.270      36.486      42.440      44.750      42.440      36.486      29.270      23.243      19.536    
  17.279      15.415      14.117      13.480      13.444      13.857      14.538      15.300      15.973      16.428    
  13.070      13.006      12.826      12.580      12.365      12.319      12.613      13.444      14.989      17.279    
  20.295      26.496      38.505      55.686      74.217      88.599      94.027      88.599      74.217      55.686    
  38.505      26.496      20.295      17.279      14.989      13.444      12.613      12.319      12.365      12.580    
  12.826      13.006      10.780      10.789      10.815      10.875      11.045      11.462      12.319      13.857    
  16.263      19.536      26.496      42.586      69.728      104.86      140.56      167.36      177.33      167.36    
  140.56      104.86      69.728      42.586      26.496      19.536      16.263      13.857      12.319      11.462    
  11.045      10.875      10.815      10.789      9.4440      9.4987      9.6473      9.8879      10.298      11.045    
  12.365      14.538      17.709      23.243      38.505      69.728      117.54      175.97      233.39      275.75    
  291.39      275.75      233.39      175.97      117.54      69.728      38.505      23.243      17.709      14.538    
  12.365      11.045      10.298      9.8879      9.6473      9.4987      8.7069      8.7857      8.9974      9.3322    
  9.8879      10.875      12.580      15.300      19.232      29.270      55.686      104.86      175.97      260.04    
  341.25      400.64      422.49      400.64      341.25      260.04      175.97      104.86      55.686      29.270    
  19.232      15.300      12.580      10.875      9.8879      9.3322      8.9974      8.7857      8.2738      8.3660    
  8.6111      8.9974      9.6473      10.815      12.826      15.973      21.014      36.486      74.217      140.56    
  233.39      341.25      444.53      519.82      547.48      519.82      444.53      341.25      233.39      140.56    
  74.217      36.486      21.014      15.973      12.826      10.815      9.6473      8.9974      8.6111      8.3660    
  7.9986      8.0993      8.3660      8.7857      9.4987      10.789      13.006      16.428      22.594      42.440    
  88.599      167.36      275.75      400.64      519.82      606.59      638.47      606.59      519.82      400.64    
  275.75      167.36      88.599      42.440      22.594      16.428      13.006      10.789      9.4987      8.7857    
  8.3660      8.0993      7.8944      7.9986      8.2738      8.7069      9.4440      10.780      13.070      16.588    
  23.234      44.750      94.027      177.33      291.39      422.49      547.48      638.47      671.91      638.47    
  547.48      422.49      291.39      177.33      94.027      44.750      23.234      16.588      13.070      10.780    
  9.4440      8.7069      8.2738      7.9986      7.9986      8.0993      8.3660      8.7857      9.4987      10.789    
  13.006      16.428      22.594      42.440      88.599      167.36      275.75      400.64      519.82      606.59    
  638.47      606.59      519.82      400.64      275.75      167.36      88.599      42.440      22.594      16.428    
  13.006      10.789      9.4987      8.7857      8.3660      8.0993      8.2738      8.3660      8.6111      8.9974    
  9.6473      10.815      12.826      15.973      21.014      36.486      74.217      140.56      233.39      341.25    
  444.53      519.82      547.48      519.82      444.53      341.25      233.39      140.56      74.217      36.486    
  21.014      15.973      12.826      10.815      9.6473      8.9974      8.6111      8.3660      8.7069      8.7857    
  8.9974      9.3322      9.8879      10.875      12.580      15.300      19.232      29.270      55.686      104.86    
  175.97      260.04      341.25      400.64      422.49      400.64      341.25      260.04      175.97      104.86    
  55.686      29.270      19.232      15.300      12.580      10.875      9.8879      9.3322      8.9974      8.7857    
  9.4440      9.4987      9.6473      9.8879      10.298      11.045      12.365      14.538      17.709      23.243    
  38.505      69.728      117.54      175.97      233.39      275.75      291.39      275.75      233.39      175.97    
  117.54      69.728      38.505      23.243      17.709      14.538      12.365      11.045      10.298      9.8879    
  9.6473      9.4987      10.780      10.789      10.815      10.875      11.045      11.462      12.319      13.857    
  16.263      19.536      26.496      42.586      69.728      104.86      140.56      167.36      177.33      167.36    
  140.56      104.86      69.728      42.586      26.496      19.536      16.263      13.857      12.319      11.462    
  11.045      10.875      10.815      10.789      13.070      13.006      12.826      12.580      12.365      12.319    
  12.613      13.444      14.989      17.279      20.295      26.496      38.505      55.686      74.217      88.599    
  94.027      88.599      74.217      55.686      38.505      26.496      20.295      17.279      14.989      13.444    
  12.613      12.319      12.365      12.580      12.826      13.006      16.588      16.428      15.973      15.300    
  14.538      13.857      13.444      13.480      14.117      15.415      17.279      19.536      23.243      29.270    
  36.486      42.440      44.750      42.440      36.486      29.270      23.243      19.536      17.279      15.415    
  14.117      13.480      13.444      13.857      14.538      15.300      15.973      16.428      23.234      22.594    
  21.014      19.232      17.709      16.263      14.989      14.117      13.808      14.117      14.989      16.263    
  17.709      19.232      21.014      22.594      23.234      22.594      21.014      19.232      17.709      16.263    
  14.989      14.117      13.808      14.117      14.989      16.263      17.709      19.232      21.014      22.594    
  44.750      42.440      36.486      29.270      23.243      19.536      17.279      15.415      14.117      13.480    
  13.444      13.857      14.538      15.300      15.973      16.428      16.588      16.428      15.973      15.300    
  14.538      13.857      13.444      13.480      14.117      15.415      17.279      19.536      23.243      29.270    
  36.486      42.440      94.027      88.599      74.217      55.686      38.505      26.496      20.295      17.279    
  14.989      13.444      12.613      12.319      12.365      12.580      12.826      13.006      13.070      13.006    
  12.826      12.580      12.365      12.319      12.613      13.444      14.989      17.279      20.295      26.496    
  38.505      55.686      74.217      88.599      177.33      167.36      140.56      104.86      69.728      42.586    
  26.496      19.536      16.263      13.857      12.319      11.462      11.045      10.875      10.815      10.789    
  10.780      10.789      10.815      10.875      11.045      11.462      12.319      13.857      16.263      19.536    
  26.496      42.586      69.728      104.86      140.56      167.36      291.39      275.75      233.39      175.97    
  117.54      69.728      38.505      23.243      17.709      14.538      12.365      11.045      10.298      9.8879    
  9.6473      9.4987      9.4440      9.4987      9.6473      9.8879      10.298      11.045      12.365      14.538    
  17.709      23.243      38.505      69.728      117.54      175.97      233.39      275.75      422.49      400.64    
  341.25      260.04      175.97      104.86      55.686      29.270      19.232      15.300      12.580      10.875    
  9.8879      9.3322      8.9974      8.7857      8.7069      8.7857      8.9974      9.3322      9.8879      10.875    
  12.580      15.300      19.232      29.270      55.686      104.86      175.97      260.04      341.25      400.64    
  547.48      519.82      444.53      341.25      233.39      140.56      74.217      36.486      21.014      15.973    
  12.826      10.815      9.6473      8.9974      8.6111      8.3660      8.2738      8.3660      8.6111      8.9974    
  9.6473      10.815      12.826      15.973      21.014      36.486      74.217      140.56      233.39      341.25    
  444.53      519.82      638.47      606.59      519.82      400.64      275.75      167.36      88.599      42.440    
  22.594      16.428      13.006      10.789      9.4987      8.7857      8.3660      8.0993      7.9986      8.0993    
  8.3660      8.7857      9.4987      10.789      13.006      16.428      22.594      42.440      88.599      167.36    
  275.75      400.64      519.82      606.59      638.47      606.59      519.82      400.64      275.75      167.36    
  88.599      42.440      22.594      16.428      13.006      10.789      9.4987      8.7857      8.3660      8.0993    
  7.9986      8.0993      8.3660      8.7857      9.4987      10.789      13.006      16.428      22.594      42.440    
  88.599      167.36      275.75      400.64      519.82      606.59      606.59      576.19      493.44      379.82    
  260.88      157.92      83.494      40.295      22.011      16.270      12.942      10.798      9.5514      8.8618    
  8.4550      8.1967      8.0993      8.1967      8.4550      8.8618      9.5514      10.798      12.942      16.270    
  22.011      40.295      83.494      157.92      260.88      379.82      493.44      576.19      519.82      493.44    
  421.67      323.25      220.61      132.55      69.987      34.783      20.574      15.822      12.765      10.822    
  9.6949      9.0666      8.6924      8.4550      8.3660      8.4550      8.6924      9.0666      9.6949      10.822    
  12.765      15.822      20.574      34.783      69.987      132.55      220.61      323.25      421.67      493.44    
  400.64      379.82      323.25      245.96      166.11      98.838      52.644      28.136      18.945      15.160    
  12.524      10.879      9.9273      9.3906      9.0666      8.8618      8.7857      8.8618      9.0666      9.3906    
  9.9273      10.879      12.524      15.160      18.945      28.136      52.644      98.838      166.11      245.96    
  323.25      379.82      275.75      260.88      220.61      166.11      110.81      65.792      36.663      22.625    
  17.497      14.414      12.313      11.041      10.323      9.9273      9.6949      9.5514      9.4987      9.5514    
  9.6949      9.9273      10.323      11.041      12.313      14.414      17.497      22.625      36.663      65.792    
  110.81      166.11      220.61      260.88      167.36      157.92      132.55      98.838      65.792      40.451    
  25.604      19.236      16.079      13.748      12.265      11.441      11.041      10.879      10.822      10.798    
  10.789      10.798      10.822      10.879      11.041      11.441      12.265      13.748      16.079      19.236    
  25.604      40.451      65.792      98.838      132.55      157.92      88.599      83.494      69.987      52.644    
  36.663      25.604      19.941      17.059      14.835      13.343      12.544      12.265      12.313      12.524    
  12.765      12.942      13.006      12.942      12.765      12.524      12.313      12.265      12.544      13.343    
  14.835      17.059      19.941      25.604      36.663      52.644      69.987      83.494      42.440      40.295    
  34.783      28.136      22.625      19.236      17.059      15.244      13.987      13.374      13.343      13.748    
  14.414      15.160      15.822      16.270      16.428      16.270      15.822      15.160      14.414      13.748    
  13.343      13.374      13.987      15.244      17.059      19.236      22.625      28.136      34.783      40.295    
  22.594      22.011      20.574      18.945      17.497      16.079      14.835      13.987      13.687      13.987    
  14.835      16.079      17.497      18.945      20.574      22.011      22.594      22.011      20.574      18.945    
  17.497      16.079      14.835      13.987      13.687      13.987      14.835      16.079      17.497      18.945    
  20.574      22.011      16.428      16.270      15.822      15.160      14.414      13.748      13.343      13.374    
  13.987      15.244      17.059      19.236      22.625      28.136      34.783      40.295      42.440      40.295    
  34.783      28.136      22.625      19.236      17.059      15.244      13.987      13.374      13.343      13.748    
  14.414      15.160      15.822      16.270      13.006      12.942      12.765      12.524      12.313      12.265    
  12.544      13.343      14.835      17.059      19.941      25.604      36.663      52.644      69.987      83.494    
  88.599      83.494      69.987      52.644      36.663      25.604      19.941      17.059      14.835      13.343    
  12.544      12.265      12.313      12.524      12.765      12.942      10.789      10.798      10.822      10.879    
  11.041      11.441      12.265      13.748      16.079      19.236      25.604      40.451      65.792      98.838    
  132.55      157.92      167.36      157.92      132.55      98.838      65.792      40.451      25.604      19.236    
  16.079      13.748      12.265      11.441      11.041      10.879      10.822      10.798      9.4987      9.5514    
  9.6949      9.9273      10.323      11.041      12.313      14.414      17.497      22.625      36.663      65.792    
  110.81      166.11      220.61      260.88      275.75      260.88      220.61      166.11      110.81      65.792    
  36.663      22.625      17.497      14.414      12.313      11.041      10.323      9.9273      9.6949      9.5514    
  8.7857      8.8618      9.0666      9.3906      9.9273      10.879      12.524      15.160      18.945      28.136    
  52.644      98.838      166.11      245.96      323.25      379.82      400.64      379.82      323.25      245.96    
  166.11      98.838      52.644      28.136      18.945      15.160      12.524      10.879      9.9273      9.3906    
  9.0666      8.8618      8.3660      8.4550      8.6924      9.0666      9.6949      10.822      12.765      15.822    
  20.574      34.783      69.987      132.55      220.61      323.25      421.67      493.44      519.82      493.44    
  421.67      323.25      220.61      132.55      69.987      34.783      20.574      15.822      12.765      10.822    
  9.6949      9.0666      8.6924      8.4550      8.0993      8.1967      8.4550      8.8618      9.5514      10.798    
  12.942      16.270      22.011      40.295      83.494      157.92      260.88      379.82      493.44      576.19    
  606.59      576.19      493.44      379.82      260.88      157.92      83.494      40.295      22.011      16.270    
  12.942      10.798      9.5514      8.8618      8.4550      8.1967      7.9986      8.0993      8.3660      8.7857    
  9.4987      10.789      13.006      16.428      22.594      42.440      88.599      167.36      275.75      400.64    
  519.82      606.59      638.47      606.59      519.82      400.64      275.75      167.36      88.599      42.440    
  22.594      16.428      13.006      10.789      9.4987      8.7857      8.3660      8.0993      8.0993      8.1967    
  8.4550      8.8618      9.5514      10.798      12.942      16.270      22.011      40.295      83.494      157.92    
  260.88      379.82      493.44      576.19      606.59      576.19      493.44      379.82      260.88      157.92    
  83.494      40.295      22.011      16.270      12.942      10.798      9.5514      8.8618      8.4550      8.1967    
  8.3660      8.4550      8.6924      9.0666      9.6949      10.822      12.765      15.822      20.574      34.783    
  69.987      132.55      220.61      323.25      421.67      493.44      519.82      493.44      421.67      323.25    
  220.61      132.55      69.987      34.783      20.574      15.822      12.765      10.822      9.6949      9.0666    
  8.6924      8.4550      8.7857      8.8618      9.0666      9.3906      9.9273      10.879      12.524      15.160    
  18.945      28.136      52.644      98.838      166.11      245.96      323.25      379.82      400.64      379.82    
  323.25      245.96      166.11      98.838      52.644      28.136      18.945      15.160      12.524      10.879    
  9.9273      9.3906      9.0666      8.8618      9.4987      9.5514      9.6949      9.9273      10.323      11.041    
  12.313      14.414      17.497      22.625      36.663      65.792      110.81      166.11      220.61      260.88    
  275.75      260.88      220.61      166.11      110.81      65.792      36.663      22.625      17.497      14.414    
  12.313      11.041      10.323      9.9273      9.6949      9.5514      10.789      10.798      10.822      10.879    
  11.041      11.441      12.265      13.748      16.079      19.236      25.604      40.451      65.792      98.838    
  132.55      157.92      167.36      157.92      132.55      98.838      65.792      40.451      25.604      19.236    
  16.079      13.748      12.265      11.441      11.041      10.879      10.822      10.798      13.006      12.942    
  12.765      12.524      12.313      12.265      12.544      13.343      14.835      17.059      19.941      25.604    
  36.663      52.644      69.987      83.494      88.599      83.494      69.987      52.644      36.663      25.604    
  19.941      17.059      14.835      13.343      12.544      12.265      12.313      12.524      12.765      12.942    
  16.428      16.270      15.822      15.160      14.414      13.748      13.343      13.374      13.987      15.244    
  17.059      19.236      22.625      28.136      34.783      40.295      42.440      40.295      34.783      28.136    
  22.625      19.236      17.059      15.244      13.987      13.374      13.343      13.748      14.414      15.160    
  15.822      16.270      22.594      22.011      20.574      18.945      17.497      16.079      14.835      13.987    
  13.687      13.987      14.835      16.079      17.497      18.945      20.574      22.011      22.594      22.011    
  20.574      18.945      17.497      16.079      14.835      13.987      13.687      13.987      14.835      16.079    
  17.497      18.945      20.574      22.011      42.440      40.295      34.783      28.136      22.625      19.236    
  17.059      15.244      13.987      13.374      13.343      13.748      14.414      15.160      15.822      16.270    
  16.428      16.270      15.822      15.160      14.414      13.748      13.343      13.374      13.987      15.244    
  17.059      19.236      22.625      28.136      34.783      40.295      88.599      83.494      69.987      52.644    
  36.663      25.604      19.941      17.059      14.835      13.343      12.544      12.265      12.313      12.524    
  12.765      12.942      13.006      12.942      12.765      12.524      12.313      12.265      12.544      13.343    
  14.835      17.059      19.941      25.604      36.663      52.644      69.987      83.494      167.36      157.92    
  132.55      98.838      65.792      40.451      25.604      19.236      16.079      13.748      12.265      11.441    
  11.041      10.879      10.822      10.798      10.789      10.798      10.822      10.879      11.041      11.441    
  12.265      13.748      16.079      19.236      25.604      40.451      65.792      98.838      132.55      157.92    
  275.75      260.88      220.61      166.11      110.81      65.792      36.663      22.625      17.497      14.414    
  12.313      11.041      10.323      9.9273      9.6949      9.5514      9.4987      9.5514      9.6949      9.9273    
  10.323      11.041      12.313      14.414      17.497      22.625      36.663      65.792      110.81      166.11    
  220.61      260.88      400.64      379.82      323.25      245.96      166.11      98.838      52.644      28.136    
  18.945      15.160      12.524      10.879      9.9273      9.3906      9.0666      8.8618      8.7857      8.8618    
  9.0666      9.3906      9.9273      10.879      12.524      15.160      18.945      28.136      52.644      98.838    
  166.11      245.96      323.25      379.82      519.82      493.44      421.67      323.25      220.61      132.55    
  69.987      34.783      20.574      15.822      12.765      10.822      9.6949      9.0666      8.6924      8.4550    
  8.3660      8.4550      8.6924      9.0666      9.6949      10.822      12.765      15.822      20.574      34.783    
  69.987      132.55      220.61      323.25      421.67      493.44      606.59      576.19      493.44      379.82    
  260.88      157.92      83.494      40.295      22.011      16.270      12.942      10.798      9.5514      8.8618    
  8.4550      8.1967      8.0993      8.1967      8.4550      8.8618      9.5514      10.798      12.942      16.270    
  22.011      40.295      83.494      157.92      260.88      379.82      493.44      576.19      547.48      519.82    
  444.53      341.25      233.39      140.56      74.217      36.486      21.014      15.973      12.826      10.815    
  9.6473      8.9974      8.6111      8.3660      8.2738      8.3660      8.6111      8.9974      9.6473      10.815    
  12.826      15.973      21.014      36.486      74.217      140.56      233.39      341.25      444.53      519.82    
  519.82      493.44      421.67      323.25      220.61      132.55      69.987      34.783      20.574      15.822    
  12.765      10.822      9.6949      9.0666      8.6924      8.4550      8.3660      8.4550      8.6924      9.0666    
  9.6949      10.822      12.765      15.822      20.574      34.783      69.987      132.55      220.61      323.25    
  421.67      493.44      444.53      421.67      359.49      274.39      186.09      111.10      58.852      30.437    
  19.484      15.393      12.598      10.842      9.8250      9.2538      8.9102      8.6924      8.6111      8.6924    
  8.9102      9.2538      9.8250      10.842      12.598      15.393      19.484      30.437      58.852      111.10    
  186.09      274.39      359.49      421.67      341.25      323.25      274.39      207.87      139.58      82.805    
  44.712      25.278      18.203      14.767      12.371      10.891      10.036      9.5501      9.2538      9.0666    
  8.9974      9.0666      9.2538      9.5501      10.036      10.891      12.371      14.767      18.203      25.278    
  44.712      82.805      139.58      207.87      274.39      323.25      233.39      220.61      186.09      139.58    
  92.849      55.441      31.939      21.086      16.896      14.067      12.172      11.034      10.392      10.036    
  9.8250      9.6949      9.6473      9.6949      9.8250      10.036      10.392      11.034      12.172      14.067    
  16.896      21.086      31.939      55.441      92.849      139.58      186.09      220.61      140.56      132.55    
  111.10      82.805      55.441      34.942      23.364      18.445      15.561      13.445      12.118      11.387    
  11.034      10.891      10.842      10.822      10.815      10.822      10.842      10.891      11.034      11.387    
  12.118      13.445      15.561      18.445      23.364      34.942      55.441      82.805      111.10      132.55    
  74.217      69.987      58.852      44.712      31.939      23.364      19.027      16.442      14.407      13.065    
  12.358      12.118      12.172      12.371      12.598      12.765      12.826      12.765      12.598      12.371    
  12.172      12.118      12.358      13.065      14.407      16.442      19.027      23.364      31.939      44.712    
  58.852      69.987      36.486      34.783      30.437      25.278      21.086      18.445      16.442      14.768    
  13.629      13.083      13.065      13.445      14.067      14.767      15.393      15.822      15.973      15.822    
  15.393      14.767      14.067      13.445      13.065      13.083      13.629      14.768      16.442      18.445    
  21.086      25.278      30.437      34.783      21.014      20.574      19.484      18.203      16.896      15.561    
  14.407      13.629      13.355      13.629      14.407      15.561      16.896      18.203      19.484      20.574    
  21.014      20.574      19.484      18.203      16.896      15.561      14.407      13.629      13.355      13.629    
  14.407      15.561      16.896      18.203      19.484      20.574      15.973      15.822      15.393      14.767    
  14.067      13.445      13.065      13.083      13.629      14.768      16.442      18.445      21.086      25.278    
  30.437      34.783      36.486      34.783      30.437      25.278      21.086      18.445      16.442      14.768    
  13.629      13.083      13.065      13.445      14.067      14.767      15.393      15.822      12.826      12.765    
  12.598      12.371      12.172      12.118      12.358      13.065      14.407      16.442      19.027      23.364    
  31.939      44.712      58.852      69.987      74.217      69.987      58.852      44.712      31.939      23.364    
  19.027      16.442      14.407      13.065      12.358      12.118      12.172      12.371      12.598      12.765    
  10.815      10.822      10.842      10.891      11.034      11.387      12.118      13.445      15.561      18.445    
  23.364      34.942      55.441      82.805      111.10      132.55      140.56      132.55      111.10      82.805    
  55.441      34.942      23.364      18.445      15.561      13.445      12.118      11.387      11.034      10.891    
  10.842      10.822      9.6473      9.6949      9.8250      10.036      10.392      11.034      12.172      14.067    
  16.896      21.086      31.939      55.441      92.849      139.58      186.09      220.61      233.39      220.61    