    4    4    1    1
  0.9606015E+01  0.3374435E-09  0.3374435E-09  0.3374435E-09  0.5000000E-15
  1.000000000000000E-004
  CAR 
 unknown system                          
     44     35     30
 
  0.0000000E+00  0.0000000E+00  0.0000000E+00  0.1371742E-02
    1       -0.599664   1.000000
    2        4.177124   1.000000
    3        4.177124   1.000000
    4        4.177124   1.000000
    5        4.784759   1.000000
    6        4.784759   1.000000
    7        4.784759   1.000000
    8        6.700798   1.000000
    9        6.700798   1.000000
   10        6.700798   1.000000
   11        7.839633   1.000000
   12        7.839633   1.000000
   13        8.595178   1.000000
   14        8.595178   1.000000
   15        8.595178   1.000000
   16        8.809997   1.000000
   17        8.809997   1.000000
   18        8.809997   1.000000
   19        8.809997   1.000000
   20        8.809997   1.000000
   21        8.809997   1.000000
   22       11.797505  -0.000000
   23       11.797505  -0.000000
   24       11.797505  -0.000000
   25       19.132168   0.000000
   26       19.132168   0.000000
   27       19.132168   0.000000
   28       25.229000   0.000000
   29       25.229000   0.000000
   30       25.229000   0.000000
 
  0.1111111E+00  0.0000000E+00  0.0000000E+00  0.8230453E-02
    1       -0.425251   1.000000
    2        4.185438   1.000000
    3        4.266439   1.000000
    4        4.266439   1.000000
    5        4.838149   1.000000
    6        4.842489   1.000000
    7        4.842489   1.000000
    8        6.638630   1.000000
    9        6.749407   1.000000
   10        6.749407   1.000000
   11        7.782869   1.000000
   12        7.861845   1.000000
   13        8.428430   1.000000
   14        8.428430   1.000000
   15        8.521357   1.000000
   16        8.521357   1.000000
   17        8.571748   1.000000
   18        8.724077   1.000000
   19        8.724077   1.000000
   20        8.810133   1.000000
   21        8.810133   1.000000
   22       10.937004  -0.005814
   23       12.325982  -0.000000
   24       12.325982  -0.000000
   25       19.173037   0.000000
   26       19.173037   0.000000
   27       20.296469   0.000000
   28       24.234157   0.000000
   29       24.234163   0.000000
   30       24.649546   0.000000
 
  0.2222222E+00  0.0000000E+00  0.0000000E+00  0.8230453E-02
    1        0.088979   1.000000
    2        4.151379   1.000000
    3        4.511509   1.000000
    4        4.511509   1.000000
    5        4.993278   1.000000
    6        5.016791   1.000000
    7        5.016791   1.000000
    8        6.459827   1.000000
    9        6.891583   1.000000
   10        6.891583   1.000000
   11        7.624751   1.000000
   12        7.685133   1.000000
   13        7.685133   1.000000
   14        7.925587   1.000000
   15        8.314199   1.000000
   16        8.314199   1.000000
   17        8.487805   1.000000
   18        8.487805   1.000000
   19        8.504291   1.000000
   20        8.810454   1.000000
   21        8.810454   1.000000
   22        9.301323   1.000000
   23       13.508199  -0.000000
   24       13.508199  -0.000000
   25       19.302255   0.000000
   26       19.302255   0.000000
   27       22.357081   0.000000
   28       22.357081   0.000000
   29       22.881596   0.000000
   30       23.435869   0.000000
 
  0.3333333E+00  0.0000000E+00  0.0000000E+00  0.8230453E-02
    1        0.911675   1.000000
    2        3.861033   1.000000
    3        4.835999   1.000000
    4        4.835999   1.000000
    5        5.234830   1.000000
    6        5.310973   1.000000
    7        5.310973   1.000000
    8        6.191483   1.000000
    9        6.932431   1.000000
   10        6.932431   1.000000
   11        7.121742   1.000000
   12        7.121742   1.000000
   13        7.406532   1.000000
   14        7.918919   1.000000
   15        8.024022   1.000000
   16        8.030579   1.000000
   17        8.030579   1.000000
   18        8.153558   1.000000
   19        8.153558   1.000000
   20        8.401679   1.000000
   21        8.810806   1.000000
   22        8.810806   1.000000
   23       14.985649  -0.000000
   24       14.985649  -0.000000
   25       19.529522   0.000000
   26       19.529522   0.000000
   27       20.373652   0.000000
   28       20.373652   0.000000
   29       22.246281   0.000000
   30       22.246281   0.000000
 
  0.4444444E+00  0.0000000E+00  0.0000000E+00  0.8230453E-02
    1        1.967098   1.000000
    2        3.070456   1.000000
    3        5.089561   1.000000
    4        5.089561   1.000000
    5        5.538317   1.000000
    6        5.729313   1.000000
    7        5.729313   1.000000
    8        5.870867   1.000000
    9        6.271364   1.000000
   10        6.271364   1.000000
   11        7.221285   1.000000
   12        7.271075   1.000000
   13        7.426658   1.000000
   14        7.426658   1.000000
   15        7.782746   1.000000
   16        7.782746   1.000000
   17        7.802797   1.000000
   18        7.802797   1.000000
   19        8.145939   1.000000
   20        8.277087   1.000000
   21        8.811031   1.000000
   22        8.811031   1.000000
   23       16.648201   0.000000
   24       16.648201   0.000000
   25       18.454077   0.000000
   26       18.454077   0.000000
   27       19.798925   0.000000
   28       19.798925   0.000000
   29       21.442741   0.000000
   30       21.442741   0.000000
 
  0.1111111E+00  0.1111111E+00  0.0000000E+00  0.1646091E-01
    1       -0.252529   1.000000
    2        4.277927   1.000000
    3        4.277927   1.000000
    4        4.352424   1.000000
    5        4.894005   1.000000
    6        4.894005   1.000000
    7        4.896621   1.000000
    8        6.603754   1.000000
    9        6.771841   1.000000
   10        6.788413   1.000000
   11        7.768009   1.000000
   12        7.851073   1.000000
   13        8.182010   1.000000
   14        8.275191   1.000000
   15        8.275191   1.000000
   16        8.453254   1.000000
   17        8.534369   1.000000
   18        8.534369   1.000000
   19        8.723854   1.000000
   20        8.723854   1.000000
   21        8.755119   1.000000
   22       11.466854  -0.000000
   23       11.466854  -0.000000
   24       12.774962  -0.000000
   25       19.203454   0.000000
   26       20.366907   0.000000
   27       20.366907   0.000000
   28       22.453095   0.000000
   29       24.474011   0.000000
   30       24.474065   0.000000
 
  0.2222222E+00  0.1111111E+00  0.0000000E+00  0.3292181E-01
    1        0.256660   1.000000
    2        4.253246   1.000000
    3        4.532582   1.000000
    4        4.589116   1.000000
    5        5.043543   1.000000
    6        5.058632   1.000000
    7        5.062479   1.000000
    8        6.446471   1.000000
    9        6.899782   1.000000
   10        6.899872   1.000000
   11        7.533855   1.000000
   12        7.568752   1.000000
   13        7.638723   1.000000
   14        7.906641   1.000000
   15        7.917491   1.000000
   16        8.260972   1.000000
   17        8.324710   1.000000
   18        8.470727   1.000000
   19        8.486675   1.000000
   20        8.723111   1.000000
   21        8.725660   1.000000
   22        9.934922   1.000149
   23       12.557356  -0.000000
   24       13.858506  -0.000000
   25       19.219822   0.000000
   26       20.582243   0.000000
   27       20.586499   0.000000
   28       22.578721   0.000000
   29       22.963960   0.000000
   30       23.663389   0.000000
 
  0.3333333E+00  0.1111111E+00  0.0000000E+00  0.3292181E-01
    1        1.070496   1.000000
    2        3.976858   1.000000
    3        4.874384   1.000000
    4        4.908896   1.000000
    5        5.276262   1.000000
    6        5.323482   1.000000
    7        5.346569   1.000000
    8        6.193280   1.000000
    9        6.805473   1.000000
   10        6.886005   1.000000
   11        7.037613   1.000000
   12        7.125337   1.000000
   13        7.367385   1.000000
   14        7.488832   1.000000
   15        7.996642   1.000000
   16        8.040645   1.000000
   17        8.043464   1.000000
   18        8.152322   1.000000
   19        8.287406   1.000000
   20        8.719481   1.000000
   21        8.721909   1.000000
   22        8.832577   1.000000
   23       13.845807  -0.000000
   24       15.275451  -0.000000
   25       18.309055   0.000000
   26       19.944525   0.000000
   27       20.594870   0.000000
   28       20.904812   0.000000
   29       22.514934   0.000000
   30       24.228782   0.000000
 
  0.4444444E+00  0.1111111E+00  0.0000000E+00  0.3292181E-01
    1        2.112842   1.000000
    2        3.200644   1.000000
    3        5.151738   1.000000
    4        5.166334   1.000000
    5        5.568286   1.000000
    6        5.685717   1.000000
    7        5.748367   1.000000
    8        5.886531   1.000000
    9        6.179354   1.000000
   10        6.265099   1.000000
   11        7.021855   1.000000
   12        7.026112   1.000000
   13        7.427465   1.000000
   14        7.582403   1.000000
   15        7.782169   1.000000
   16        7.789376   1.000000
   17        7.808476   1.000000
   18        7.919996   1.000000
   19        8.200300   1.000000
   20        8.403870   1.000000
   21        8.719054   1.000000
   22        8.720369   1.000000
   23       15.245611  -0.000000
   24       16.742717   0.000000
   25       16.901837   0.000000
   26       18.686120   0.000000
   27       20.308792   0.000000
   28       20.854485   0.000000
   29       22.239499   0.000000
   30       23.043587   0.000000
 
  0.2222222E+00  0.2222222E+00  0.0000000E+00  0.1646091E-01
    1        0.750055   1.000000
    2        4.537240   1.000000
    3        4.537240   1.000000
    4        4.802395   1.000000
    5        5.183479   1.000000
    6        5.195182   1.000000
    7        5.195182   1.000000
    8        6.363734   1.000000
    9        6.925958   1.000000
   10        6.973321   1.000000
   11        7.169630   1.000000
   12        7.169630   1.000000
   13        7.223724   1.000000
   14        7.594944   1.000000
   15        7.985252   1.000000
   16        8.107187   1.000000
   17        8.284905   1.000000
   18        8.284905   1.000000
   19        8.484193   1.000000
   20        8.484193   1.000000
   21        8.593643   1.000000
   22       10.927800  -0.006806
   23       10.927800  -0.006806
   24       14.780982  -0.000000
   25       17.976347   0.000000
   26       19.875670   0.000000
   27       23.118098   0.000000
   28       23.118098   0.000000
   29       23.215420   0.000000
   30       23.215420   0.000000
 
  0.3333333E+00  0.2222222E+00  0.0000000E+00  0.3292181E-01
    1        1.535482   1.000000
    2        4.301463   1.000000
    3        4.930184   1.000000
    4        5.100895   1.000000
    5        5.368895   1.000000
    6        5.399833   1.000000
    7        5.448094   1.000000
    8        6.178010   1.000000
    9        6.515952   1.000000
   10        6.739015   1.000000
   11        6.790247   1.000000
   12        6.930155   1.000000
   13        7.159895   1.000000
   14        7.508555   1.000000
   15        7.890122   1.000000
   16        8.019794   1.000000
   17        8.123598   1.000000
   18        8.150293   1.000000
   19        8.180808   1.000000
   20        8.481454   1.000000
   21        8.519486   1.000000
   22        9.629204   1.000000
   23       12.021996  -0.000000
   24       16.074781   0.000000
   25       16.174426   0.000000
   26       20.153927   0.000000
   27       21.230274   0.000000
   28       22.544698   0.000000
   29       24.198510   0.000000
   30       24.232304   0.000000
 
  0.4444444E+00  0.2222222E+00  0.0000000E+00  0.3292181E-01
    1        2.534870   1.000000
    2        3.569830   1.000000
    3        5.286364   1.000000
    4        5.380412   1.000000
    5        5.568057   1.000000
    6        5.653971   1.000000
    7        5.800109   1.000000
    8        5.926441   1.000000
    9        5.971540   1.000000
   10        6.240502   1.000000
   11        6.680556   1.000000
   12        6.811713   1.000000
   13        7.441428   1.000000
   14        7.591233   1.000000
   15        7.728462   1.000000
   16        7.781132   1.000000
   17        7.784919   1.000000
   18        7.848475   1.000000
   19        8.462071   1.000000
   20        8.481424   1.000000
   21        8.489959   1.000000
   22        8.876295   1.000000
   23       13.224166  -0.000000
   24       14.587656  -0.000000
   25       17.618269   0.000000
   26       19.349410   0.000000
   27       20.707493   0.000000
   28       21.521445   0.000000
   29       24.963151   0.000000
   30       25.448479   0.000000
 
  0.3333333E+00  0.3333333E+00  0.0000000E+00  0.1646091E-01
    1        2.267392   1.000000
    2        4.757535   1.000000
    3        4.757535   1.000000
    4        5.311817   1.000000
    5        5.485242   1.000000
    6        5.601562   1.000000
    7        5.601562   1.000000
    8        6.105899   1.000000
    9        6.312914   1.000000
   10        6.312914   1.000000
   11        6.491941   1.000000
   12        6.836711   1.000000
   13        7.276197   1.000000
   14        7.419577   1.000000
   15        7.724139   1.000000
   16        7.880958   1.000000
   17        7.880958   1.000000
   18        8.152987   1.000000
   19        8.152987   1.000000
   20        8.336355   1.000000
   21        8.483035   1.000000
   22       10.511541   0.527443
   23       10.511541   0.527443
   24       14.293300  -0.000000
   25       17.251941   0.000000
   26       20.595665   0.000000
   27       22.213875   0.000000
   28       22.213875   0.000000
   29       23.470207   0.000000
   30       23.470207   0.000000
 
  0.4444444E+00  0.3333333E+00  0.0000000E+00  0.3292181E-01
    1        3.180814   1.000000
    2        4.106221   1.000000
    3        5.188876   1.000000
    4        5.383727   1.000000
    5        5.687727   1.000000
    6        5.784537   1.000000
    7        5.870670   1.000000
    8        5.947359   1.000000
    9        5.965283   1.000000
   10        6.183040   1.000000
   11        6.415107   1.000000
   12        6.658741   1.000000
   13        7.441933   1.000000
   14        7.498764   1.000000
   15        7.594710   1.000000
   16        7.642346   1.000000
   17        7.655643   1.000000
   18        7.805852   1.000000
   19        8.171295   1.000000
   20        8.224055   1.000000
   21        8.902604   1.000000
   22        9.512857   1.000000
   23       11.523188  -0.000000
   24       12.753655  -0.000000
   25       18.704372   0.000000
   26       20.370692   0.000000
   27       21.278239   0.000000
   28       22.234556   0.000000
   29       23.475288   0.000000
   30       24.577597   0.000000
 
  0.4444444E+00  0.4444444E+00  0.0000000E+00  0.1646091E-01
    1        3.946410   1.000000
    2        4.671861   1.000000
    3        4.671861   1.000000
    4        5.109110   1.000000
    5        5.937087   1.000000
    6        5.937087   1.000000
    7        5.973334   1.000000
    8        5.993047   1.000000
    9        6.079387   1.000000
   10        6.218539   1.000000
   11        6.218539   1.000000
   12        6.491978   1.000000
   13        7.347761   1.000000
   14        7.447691   1.000000
   15        7.456687   1.000000
   16        7.456687   1.000000
   17        7.637049   1.000000
   18        7.869803   1.000000
   19        7.869803   1.000000
   20        8.005686   1.000000
   21        9.480334   1.000000
   22       10.296688   1.032951
   23       10.296688   1.032951
   24       11.335144  -0.000000
   25       20.075758   0.000000
   26       21.676955   0.000000
   27       21.676955   0.000000
   28       22.096511   0.000000
   29       23.193866   0.000000
   30       23.193914   0.000000
 
  0.1111111E+00  0.1111111E+00  0.1111111E+00  0.1097394E-01
    1       -0.081668   1.000000
    2        4.366112   1.000000
    3        4.366112   1.000000
    4        4.366112   1.000000
    5        4.946512   1.000000
    6        4.946512   1.000000
    7        4.946512   1.000000
    8        6.573367   1.000000
    9        6.805418   1.000000
   10        6.805418   1.000000
   11        7.801424   1.000000
   12        7.801424   1.000000
   13        8.051321   1.000000
   14        8.051321   1.000000
   15        8.051321   1.000000
   16        8.373703   1.000000
   17        8.373703   1.000000
   18        8.373703   1.000000
   19        8.736101   1.000000
   20        8.736101   1.000000
   21        8.736101   1.000000
   22       11.887353  -0.000000
   23       11.887353  -0.000000
   24       11.887353  -0.000000
   25       20.421502   0.000000
   26       20.421502   0.000000
   27       20.421502   0.000000
   28       22.691013   0.000000
   29       22.691013   0.000000
   30       22.691013   0.000000
 
  0.2222222E+00  0.1111111E+00  0.1111111E+00  0.3292181E-01
    1        0.421755   1.000000
    2        4.347643   1.000000
    3        4.609031   1.000000
    4        4.609031   1.000000
    5        5.092114   1.000000
    6        5.103430   1.000000
    7        5.103430   1.000000
    8        6.435800   1.000000
    9        6.900210   1.000000
   10        6.907252   1.000000
   11        7.435370   1.000000
   12        7.435370   1.000000
   13        7.671877   1.000000
   14        7.675061   1.000000
   15        7.896662   1.000000
   16        8.166775   1.000000
   17        8.203434   1.000000
   18        8.203434   1.000000
   19        8.667520   1.000000
   20        8.703727   1.000000
   21        8.703727   1.000000
   22       10.317341   1.025481
   23       12.856225  -0.000000
   24       12.856225  -0.000000
   25       20.259470   0.000000
   26       20.259470   0.000000
   27       21.096177   0.000000
   28       21.096177   0.000000
   29       22.847857   0.000000
   30       23.562387   0.000000
 
  0.3333333E+00  0.1111111E+00  0.1111111E+00  0.3292181E-01
    1        1.225106   1.000000
    2        4.080984   1.000000
    3        4.941341   1.000000
    4        4.941341   1.000000
    5        5.319072   1.000000
    6        5.353987   1.000000
    7        5.353987   1.000000
    8        6.199422   1.000000
    9        6.780750   1.000000
   10        6.780750   1.000000
   11        7.007017   1.000000
   12        7.076727   1.000000
   13        7.168729   1.000000
   14        7.586318   1.000000
   15        7.888094   1.000000
   16        7.970115   1.000000
   17        7.970115   1.000000
   18        8.039585   1.000000
   19        8.546346   1.000000
   20        8.674577   1.000000
   21        8.674577   1.000000
   22        9.056338   1.000000
   23       14.059734  -0.000000
   24       14.059734  -0.000000
   25       18.698413   0.000000
   26       18.698413   0.000000
   27       21.281310   0.000000
   28       21.281310   0.000000
   29       24.199404   0.000000
   30       24.427189   0.000000
 
  0.4444444E+00  0.1111111E+00  0.1111111E+00  0.3292181E-01
    1        2.251711   1.000000
    2        3.319990   1.000000
    3        5.227988   1.000000
    4        5.227988   1.000000
    5        5.602240   1.000000
    6        5.653743   1.000000
    7        5.653743   1.000000
    8        5.908417   1.000000
    9        6.235413   1.000000
   10        6.235413   1.000000
   11        6.903855   1.000000
   12        6.949504   1.000000
   13        7.308918   1.000000
   14        7.588522   1.000000
   15        7.767274   1.000000
   16        7.767274   1.000000
   17        7.783694   1.000000
   18        8.210538   1.000000
   19        8.266855   1.000000
   20        8.387029   1.000000
   21        8.661922   1.000000
   22        8.661922   1.000000
   23       15.318279  -0.000000
   24       15.318279  -0.000000
   25       17.176255   0.000000
   26       17.176255   0.000000
   27       21.878856   0.000000
   28       21.878856   0.000000
   29       23.286133   0.000000
   30       23.286133   0.000000
 
  0.2222222E+00  0.2222222E+00  0.1111111E+00  0.3292181E-01
    1        0.906834   1.000000
    2        4.607068   1.000000
    3        4.607068   1.000000
    4        4.816394   1.000000
    5        5.225737   1.000000
    6        5.236913   1.000000
    7        5.236913   1.000000
    8        6.365906   1.000000
    9        6.923147   1.000000
   10        6.949189   1.000000
   11        7.100218   1.000000
   12        7.100218   1.000000
   13        7.125323   1.000000
   14        7.677086   1.000000
   15        7.948546   1.000000
   16        7.989575   1.000000
   17        8.020029   1.000000
   18        8.020029   1.000000
   19        8.637388   1.000000
   20        8.637388   1.000000
   21        8.639587   1.000000
   22       11.151671  -0.000035
   23       11.151671  -0.000035
   24       13.613691  -0.000000
   25       18.393822   0.000000
   26       21.143069   0.000000
   27       21.176472   0.000000
   28       21.176472   0.000000
   29       23.518189   0.000000
   30       23.518189   0.000000
 
  0.3333333E+00  0.2222222E+00  0.1111111E+00  0.6584362E-01
    1        1.676599   1.000000
    2        4.364434   1.000000
    3        4.961421   1.000000
    4        5.100292   1.000000
    5        5.401250   1.000000
    6        5.449448   1.000000
    7        5.462103   1.000000
    8        6.202097   1.000000
    9        6.544143   1.000000
   10        6.694426   1.000000
   11        6.754223   1.000000
   12        6.922815   1.000000
   13        7.061431   1.000000
   14        7.659302   1.000000
   15        7.750705   1.000000
   16        7.789399   1.000000
   17        7.850351   1.000000
   18        8.147063   1.000000
   19        8.498987   1.000000
   20        8.560915   1.000000
   21        8.562960   1.000000
   22        9.732591   1.000000
   23       12.161926  -0.000000
   24       14.520129  -0.000000
   25       16.723998   0.000000
   26       19.361156   0.000000
   27       21.638211   0.000000
   28       22.155277   0.000000
   29       23.932486   0.000000
   30       25.125539   0.000000
 
  0.4444444E+00  0.2222222E+00  0.1111111E+00  0.6584362E-01
    1        2.650754   1.000000
    2        3.652672   1.000000
    3        5.305331   1.000000
    4        5.412262   1.000000
    5        5.486383   1.000000
    6        5.620153   1.000000
    7        5.707227   1.000000
    8        5.969603   1.000000
    9        6.196856   1.000000
   10        6.318533   1.000000
   11        6.664639   1.000000
   12        6.799340   1.000000
   13        7.233303   1.000000
   14        7.470523   1.000000
   15        7.642582   1.000000
   16        7.673376   1.000000
   17        7.868203   1.000000
   18        8.232930   1.000000
   19        8.418887   1.000000
   20        8.516042   1.000000
   21        8.516917   1.000000
   22        8.851144   1.000000
   23       13.283595  -0.000000
   24       14.425078  -0.000000
   25       16.518762   0.000000
   26       17.768041   0.000000
   27       22.409909   0.000000
   28       23.384709   0.000000
   29       23.417265   0.000000
   30       24.840056   0.000000
 
  0.3333333E+00  0.3333333E+00  0.1111111E+00  0.3292181E-01
    1        2.382225   1.000000
    2        4.736481   1.000000
    3        4.736481   1.000000
    4        5.214791   1.000000
    5        5.558086   1.000000
    6        5.664485   1.000000
    7        5.664485   1.000000
    8        6.161663   1.000000
    9        6.377869   1.000000
   10        6.377869   1.000000
   11        6.540410   1.000000
   12        6.840439   1.000000
   13        7.084370   1.000000
   14        7.590327   1.000000
   15        7.625287   1.000000
   16        7.625287   1.000000
   17        7.654270   1.000000
   18        8.381112   1.000000
   19        8.381112   1.000000
   20        8.431540   1.000000
   21        8.438389   1.000000
   22       10.563929   0.311344
   23       10.563929   0.311344
   24       14.047480  -0.000000
   25       16.291006   0.000000
   26       20.298673   0.000000
   27       20.298673   0.000000
   28       22.231666   0.000000
   29       24.606204   0.000000
   30       25.595997   0.000000
 
  0.4444444E+00  0.3333333E+00  0.1111111E+00  0.6584362E-01
    1        3.250963   1.000000
    2        4.115682   1.000000
    3        5.056480   1.000000
    4        5.214014   1.000000
    5        5.751475   1.000000
    6        5.845785   1.000000
    7        5.885619   1.000000
    8        6.054800   1.000000
    9        6.204913   1.000000
   10        6.355222   1.000000
   11        6.452416   1.000000
   12        6.672860   1.000000
   13        7.174614   1.000000
   14        7.371021   1.000000
   15        7.458842   1.000000
   16        7.488724   1.000000
   17        7.806642   1.000000
   18        8.106293   1.000000
   19        8.310534   1.000000
   20        8.330921   1.000000
   21        8.850811   1.000000
   22        9.484305   1.000000
   23       11.536690  -0.000000
   24       12.712006  -0.000000
   25       17.301871   0.000000
   26       18.677327   0.000000
   27       21.498807   0.000000
   28       22.937489   0.000000
   29       23.101526   0.000000
   30       24.250639   0.000000
 
  0.4444444E+00  0.4444444E+00  0.1111111E+00  0.3292181E-01
    1        3.941212   1.000000
    2        4.576778   1.000000
    3        4.576778   1.000000
    4        4.939080   1.000000
    5        6.042728   1.000000
    6        6.100224   1.000000
    7        6.100224   1.000000
    8        6.124810   1.000000
    9        6.297110   1.000000
   10        6.297110   1.000000
   11        6.313241   1.000000
   12        6.524776   1.000000
   13        7.151798   1.000000
   14        7.274878   1.000000
   15        7.274878   1.000000
   16        7.296225   1.000000
   17        7.853911   1.000000
   18        8.060044   1.000000
   19        8.060044   1.000000
   20        8.150504   1.000000
   21        9.424674   1.000000
   22       10.260425   1.034892
   23       10.260425   1.034892
   24       11.299477  -0.000000
   25       18.452633   0.000000
   26       19.855241   0.000000
   27       19.855241   0.000000
   28       21.276501   0.000000
   29       24.066329   0.000000
   30       25.310380   0.000000
 
  0.2222222E+00  0.2222222E+00  0.2222222E+00  0.1097394E-01
    1        1.365059   1.000000
    2        4.784021   1.000000
    3        4.784021   1.000000
    4        4.784021   1.000000
    5        5.368994   1.000000
    6        5.368994   1.000000
    7        5.368994   1.000000
    8        6.349126   1.000000
    9        6.880207   1.000000
   10        6.880207   1.000000
   11        6.880207   1.000000
   12        6.922885   1.000000
   13        6.922885   1.000000
   14        7.743585   1.000000
   15        7.743585   1.000000
   16        7.743585   1.000000
   17        7.872200   1.000000
   18        7.872200   1.000000
   19        8.682160   1.000000
   20        8.682160   1.000000
   21        8.682160   1.000000
   22       11.734947  -0.000000
   23       11.734947  -0.000000
   24       11.734947  -0.000000
   25       19.083821   0.000000
   26       19.083821   0.000000
   27       19.083821   0.000000
   28       23.870661   0.000000
   29       23.870661   0.000000
   30       23.870661   0.000000
 
  0.3333333E+00  0.2222222E+00  0.2222222E+00  0.3292181E-01
    1        2.083946   1.000000
    2        4.514566   1.000000
    3        4.989504   1.000000
    4        4.989504   1.000000
    5        5.566513   1.000000
    6        5.566513   1.000000
    7        5.610662   1.000000
    8        6.267466   1.000000
    9        6.602293   1.000000
   10        6.602293   1.000000
   11        6.648638   1.000000
   12        6.894230   1.000000
   13        6.951293   1.000000
   14        7.474748   1.000000
   15        7.565590   1.000000
   16        7.565590   1.000000
   17        7.891733   1.000000
   18        8.108608   1.000000
   19        8.616627   1.000000
   20        8.616627   1.000000
   21        8.647702   1.000000
   22       10.106345   1.006589
   23       12.502150  -0.000000
   24       12.502150  -0.000000
   25       17.332362   0.000000
   26       17.332362   0.000000
   27       20.031571   0.000000
   28       24.349739   0.000000
   29       24.460243   0.000000
   30       24.460243   0.000000
 
  0.4444444E+00  0.2222222E+00  0.2222222E+00  0.3292181E-01
    1        2.974646   1.000000
    2        3.867435   1.000000
    3        5.144777   1.000000
    4        5.144777   1.000000
    5        5.689654   1.000000
    6        5.689654   1.000000
    7        5.881394   1.000000
    8        6.108580   1.000000
    9        6.460544   1.000000
   10        6.460544   1.000000
   11        6.616210   1.000000
   12        6.759066   1.000000
   13        7.055379   1.000000
   14        7.234964   1.000000
   15        7.442428   1.000000
   16        7.442428   1.000000
   17        8.214075   1.000000
   18        8.338945   1.000000
   19        8.527903   1.000000
   20        8.545517   1.000000
   21        8.545517   1.000000
   22        8.933330   1.000000
   23       13.201939  -0.000000
   24       13.201939  -0.000000
   25       16.145424   0.000000
   26       16.145424   0.000000
   27       21.236785   0.000000
   28       22.678678   0.000000
   29       25.230449   0.000000
   30       25.230449   0.000000
 
  0.3333333E+00  0.3333333E+00  0.2222222E+00  0.3292181E-01
    1        2.704137   1.000000
    2        4.670926   1.000000
    3        4.670926   1.000000
    4        4.951912   1.000000
    5        5.778700   1.000000
    6        5.859047   1.000000
    7        5.859047   1.000000