unknown system                          
   1.00000000000000     
     3.635000    0.000000    0.000000
     0.000000    3.635000    0.000000
     0.000000    0.000000    3.635000
   Cu
     4
Direct
  0.000000  0.000000  0.000000
  0.500000  0.500000  0.000000
  0.500000  0.000000  0.500000
  0.000000  0.500000  0.500000
 
   28   28   28
  839.56      777.15      614.81      412.02      230.04      105.57      43.054      22.082      14.144      10.147    
  8.6686      7.8174      7.4135      7.6911      7.9742      7.6911      7.4135      7.8174      8.6686      10.147    
  14.144      22.082      43.054      105.57      230.04      412.02      614.81      777.15      777.15      719.04    
  567.95      379.51      211.03      96.717      40.215      21.524      13.913      10.077      8.6189      7.7371    
  7.2701      7.4560      7.6911      7.4560      7.2701      7.7371      8.6189      10.077      13.913      21.524    
  40.215      96.717      211.03      379.51      567.95      719.04      614.81      567.95      446.37      295.59    
  162.53      74.702      33.463      20.037      13.257      9.9048      8.5842      7.7399      7.2315      7.2701    
  7.4135      7.2701      7.2315      7.7399      8.5842      9.9048      13.257      20.037      33.463      74.702    
  162.53      295.59      446.37      567.95      412.02      379.51      295.59      192.92      104.89      49.996    
  26.492      17.807      12.297      9.6981      8.7022      8.1019      7.7399      7.7371      7.8174      7.7371    
  7.7399      8.1019      8.7022      9.6981      12.297      17.807      26.492      49.996      104.89      192.92    
  295.59      379.51      230.04      211.03      162.53      104.89      58.226      31.939      21.421      15.205    
  11.253      9.5236      8.9531      8.7022      8.5842      8.6189      8.6686      8.6189      8.5842      8.7022    
  8.9531      9.5236      11.253      15.205      21.421      31.939      58.226      104.89      162.53      211.03    
  105.57      96.717      74.702      49.996      31.939      22.720      17.072      12.809      10.442      9.5925    
  9.5236      9.6981      9.9048      10.077      10.147      10.077      9.9048      9.6981      9.5236      9.5925    
  10.442      12.809      17.072      22.720      31.939      49.996      74.702      96.717      43.054      40.215    
  33.463      26.492      21.421      17.072      13.442      11.153      10.262      10.442      11.253      12.297    
  13.257      13.913      14.144      13.913      13.257      12.297      11.253      10.442      10.262      11.153    
  13.442      17.072      21.421      26.492      33.463      40.215      22.082      21.524      20.037      17.807    
  15.205      12.809      11.153      10.566      11.153      12.809      15.205      17.807      20.037      21.524    
  22.082      21.524      20.037      17.807      15.205      12.809      11.153      10.566      11.153      12.809    
  15.205      17.807      20.037      21.524      14.144      13.913      13.257      12.297      11.253      10.442    
  10.262      11.153      13.442      17.072      21.421      26.492      33.463      40.215      43.054      40.215    
  33.463      26.492      21.421      17.072      13.442      11.153      10.262      10.442      11.253      12.297    
  13.257      13.913      10.147      10.077      9.9048      9.6981      9.5236      9.5925      10.442      12.809    
  17.072      22.720      31.939      49.996      74.702      96.717      105.57      96.717      74.702      49.996    
  31.939      22.720      17.072      12.809      10.442      9.5925      9.5236      9.6981      9.9048      10.077    
  8.6686      8.6189      8.5842      8.7022      8.9531      9.5236      11.253      15.205      21.421      31.939    
  58.226      104.89      162.53      211.03      230.04      211.03      162.53      104.89      58.226      31.939    
  21.421      15.205      11.253      9.5236      8.9531      8.7022      8.5842      8.6189      7.8174      7.7371    
  7.7399      8.1019      8.7022      9.6981      12.297      17.807      26.492      49.996      104.89      192.92    
  295.59      379.51      412.02      379.51      295.59      192.92      104.89      49.996      26.492      17.807    
  12.297      9.6981      8.7022      8.1019      7.7399      7.7371      7.4135      7.2701      7.2315      7.7399    
  8.5842      9.9048      13.257      20.037      33.463      74.702      162.53      295.59      446.37      567.95    
  614.81      567.95      446.37      295.59      162.53      74.702      33.463      20.037      13.257      9.9048    
  8.5842      7.7399      7.2315      7.2701      7.6911      7.4560      7.2701      7.7371      8.6189      10.077    
  13.913      21.524      40.215      96.717      211.03      379.51      567.95      719.04      777.15      719.04    
  567.95      379.51      211.03      96.717      40.215      21.524      13.913      10.077      8.6189      7.7371    
  7.2701      7.4560      7.9742      7.6911      7.4135      7.8174      8.6686      10.147      14.144      22.082    
  43.054      105.57      230.04      412.02      614.81      777.15      839.56      777.15      614.81      412.02    
  230.04      105.57      43.054      22.082      14.144      10.147      8.6686      7.8174      7.4135      7.6911    
  7.6911      7.4560      7.2701      7.7371      8.6189      10.077      13.913      21.524      40.215      96.717    
  211.03      379.51      567.95      719.04      777.15      719.04      567.95      379.51      211.03      96.717    
  40.215      21.524      13.913      10.077      8.6189      7.7371      7.2701      7.4560      7.4135      7.2701    
  7.2315      7.7399      8.5842      9.9048      13.257      20.037      33.463      74.702      162.53      295.59    
  446.37      567.95      614.81      567.95      446.37      295.59      162.53      74.702      33.463      20.037    
  13.257      9.9048      8.5842      7.7399      7.2315      7.2701      7.8174      7.7371      7.7399      8.1019    
  8.7022      9.6981      12.297      17.807      26.492      49.996      104.89      192.92      295.59      379.51    
  412.02      379.51      295.59      192.92      104.89      49.996      26.492      17.807      12.297      9.6981    
  8.7022      8.1019      7.7399      7.7371      8.6686      8.6189      8.5842      8.7022      8.9531      9.5236    
  11.253      15.205      21.421      31.939      58.226      104.89      162.53      211.03      230.04      211.03    
  162.53      104.89      58.226      31.939      21.421      15.205      11.253      9.5236      8.9531      8.7022    
  8.5842      8.6189      10.147      10.077      9.9048      9.6981      9.5236      9.5925      10.442      12.809    
  17.072      22.720      31.939      49.996      74.702      96.717      105.57      96.717      74.702      49.996    
  31.939      22.720      17.072      12.809      10.442      9.5925      9.5236      9.6981      9.9048      10.077    
  14.144      13.913      13.257      12.297      11.253      10.442      10.262      11.153      13.442      17.072    
  21.421      26.492      33.463      40.215      43.054      40.215      33.463      26.492      21.421      17.072    
  13.442      11.153      10.262      10.442      11.253      12.297      13.257      13.913      22.082      21.524    
  20.037      17.807      15.205      12.809      11.153      10.566      11.153      12.809      15.205      17.807    
  20.037      21.524      22.082      21.524      20.037      17.807      15.205      12.809      11.153      10.566    
  11.153      12.809      15.205      17.807      20.037      21.524      43.054      40.215      33.463      26.492    
  21.421      17.072      13.442      11.153      10.262      10.442      11.253      12.297      13.257      13.913    
  14.144      13.913      13.257      12.297      11.253      10.442      10.262      11.153      13.442      17.072    
  21.421      26.492      33.463      40.215      105.57      96.717      74.702      49.996      31.939      22.720    
  17.072      12.809      10.442      9.5925      9.5236      9.6981      9.9048      10.077      10.147      10.077    
  9.9048      9.6981      9.5236      9.5925      10.442      12.809      17.072      22.720      31.939      49.996    
  74.702      96.717      230.04      211.03      162.53      104.89      58.226      31.939      21.421      15.205    
  11.253      9.5236      8.9531      8.7022      8.5842      8.6189      8.6686      8.6189      8.5842      8.7022    
  8.9531      9.5236      11.253      15.205      21.421      31.939      58.226      104.89      162.53      211.03    
  412.02      379.51      295.59      192.92      104.89      49.996      26.492      17.807      12.297      9.6981    
  8.7022      8.1019      7.7399      7.7371      7.8174      7.7371      7.7399      8.1019      8.7022      9.6981    
  12.297      17.807      26.492      49.996      104.89      192.92      295.59      379.51      614.81      567.95    
  446.37      295.59      162.53      74.702      33.463      20.037      13.257      9.9048      8.5842      7.7399    
  7.2315      7.2701      7.4135      7.2701      7.2315      7.7399      8.5842      9.9048      13.257      20.037    
  33.463      74.702      162.53      295.59      446.37      567.95      777.15      719.04      567.95      379.51    
  211.03      96.717      40.215      21.524      13.913      10.077      8.6189      7.7371      7.2701      7.4560    
  7.6911      7.4560      7.2701      7.7371      8.6189      10.077      13.913      21.524      40.215      96.717    
  211.03      379.51      567.95      719.04      777.15      719.04      567.95      379.51      211.03      96.717    
  40.215      21.524      13.913      10.077      8.6189      7.7371      7.2701      7.4560      7.6911      7.4560    
  7.2701      7.7371      8.6189      10.077      13.913      21.524      40.215      96.717      211.03      379.51    
  567.95      719.04      719.04      664.94      524.38      349.35      193.49      88.650      37.681      21.002    
  13.692      10.019      8.5888      7.6851      7.1633      7.2654      7.4560      7.2654      7.1633      7.6851    
  8.5888      10.019      13.692      21.002      37.681      88.650      193.49      349.35      524.38      664.94    
  567.95      524.38      411.42      271.62      148.87      68.655      31.678      19.561      13.064      9.8746    
  8.5927      7.7409      7.1926      7.1633      7.2701      7.1633      7.1926      7.7409      8.5927      9.8746    
  13.064      19.561      31.678      68.655      148.87      271.62      411.42      524.38      379.51      349.35    
  271.62      176.83      96.088      46.388      25.494      17.386      12.147      9.6934      8.7366      8.1341    
  7.7409      7.6851      7.7371      7.6851      7.7409      8.1341      8.7366      9.6934      12.147      17.386    
  25.494      46.388      96.088      176.83      271.62      349.35      211.03      193.49      148.87      96.088    
  53.767      30.306      20.832      14.878      11.151      9.5327      8.9917      8.7366      8.5927      8.5888    
  8.6189      8.5888      8.5927      8.7366      8.9917      9.5327      11.151      14.878      20.832      30.306    
  53.767      96.088      148.87      193.49      96.717      88.650      68.655      46.388      30.306      22.052    
  16.628      12.586      10.374      9.5908      9.5327      9.6934      9.8746      10.019      10.077      10.019    
  9.8746      9.6934      9.5327      9.5908      10.374      12.586      16.628      22.052      30.306      46.388    
  68.655      88.650      40.215      37.681      31.678      25.494      20.832      16.628      13.167      11.011    
  10.187      10.374      11.151      12.147      13.064      13.692      13.913      13.692      13.064      12.147    
  11.151      10.374      10.187      11.011      13.167      16.628      20.832      25.494      31.678      37.681    
  21.524      21.002      19.561      17.386      14.878      12.586      11.011      10.454      11.011      12.586    
  14.878      17.386      19.561      21.002      21.524      21.002      19.561      17.386      14.878      12.586    
  11.011      10.454      11.011      12.586      14.878      17.386      19.561      21.002      13.913      13.692    
  13.064      12.147      11.151      10.374      10.187      11.011      13.167      16.628      20.832      25.494    
  31.678      37.681      40.215      37.681      31.678      25.494      20.832      16.628      13.167      11.011    
  10.187      10.374      11.151      12.147      13.064      13.692      10.077      10.019      9.8746      9.6934    
  9.5327      9.5908      10.374      12.586      16.628      22.052      30.306      46.388      68.655      88.650    
  96.717      88.650      68.655      46.388      30.306      22.052      16.628      12.586      10.374      9.5908    
  9.5327      9.6934      9.8746      10.019      8.6189      8.5888      8.5927      8.7366      8.9917      9.5327    
  11.151      14.878      20.832      30.306      53.767      96.088      148.87      193.49      211.03      193.49    
  148.87      96.088      53.767      30.306      20.832      14.878      11.151      9.5327      8.9917      8.7366    
  8.5927      8.5888      7.7371      7.6851      7.7409      8.1341      8.7366      9.6934      12.147      17.386    
  25.494      46.388      96.088      176.83      271.62      349.35      379.51      349.35      271.62      176.83    
  96.088      46.388      25.494      17.386      12.147      9.6934      8.7366      8.1341      7.7409      7.6851    
  7.2701      7.1633      7.1926      7.7409      8.5927      9.8746      13.064      19.561      31.678      68.655    
  148.87      271.62      411.42      524.38      567.95      524.38      411.42      271.62      148.87      68.655    
  31.678      19.561      13.064      9.8746      8.5927      7.7409      7.1926      7.1633      7.4560      7.2654    
  7.1633      7.6851      8.5888      10.019      13.692      21.002      37.681      88.650      193.49      349.35    
  524.38      664.94      719.04      664.94      524.38      349.35      193.49      88.650      37.681      21.002    
  13.692      10.019      8.5888      7.6851      7.1633      7.2654      7.6911      7.4560      7.2701      7.7371    
  8.6189      10.077      13.913      21.524      40.215      96.717      211.03      379.51      567.95      719.04    
  777.15      719.04      567.95      379.51      211.03      96.717      40.215      21.524      13.913      10.077    
  8.6189      7.7371      7.2701      7.4560      7.4560      7.2654      7.1633      7.6851      8.5888      10.019    
  13.692      21.002      37.681      88.650      193.49      349.35      524.38      664.94      719.04      664.94    
  524.38      349.35      193.49      88.650      37.681      21.002      13.692      10.019      8.5888      7.6851    
  7.1633      7.2654      7.2701      7.1633      7.1926      7.7409      8.5927      9.8746      13.064      19.561    
  31.678      68.655      148.87      271.62      411.42      524.38      567.95      524.38      411.42      271.62    
  148.87      68.655      31.678      19.561      13.064      9.8746      8.5927      7.7409      7.1926      7.1633    
  7.7371      7.6851      7.7409      8.1341      8.7366      9.6934      12.147      17.386      25.494      46.388    
  96.088      176.83      271.62      349.35      379.51      349.35      271.62      176.83      96.088      46.388    
  25.494      17.386      12.147      9.6934      8.7366      8.1341      7.7409      7.6851      8.6189      8.5888    
  8.5927      8.7366      8.9917      9.5327      11.151      14.878      20.832      30.306      53.767      96.088    
  148.87      193.49      211.03      193.49      148.87      96.088      53.767      30.306      20.832      14.878    
  11.151      9.5327      8.9917      8.7366      8.5927      8.5888      10.077      10.019      9.8746      9.6934    
  9.5327      9.5908      10.374      12.586      16.628      22.052      30.306      46.388      68.655      88.650    
  96.717      88.650      68.655      46.388      30.306      22.052      16.628      12.586      10.374      9.5908    
  9.5327      9.6934      9.8746      10.019      13.913      13.692      13.064      12.147      11.151      10.374    
  10.187      11.011      13.167      16.628      20.832      25.494      31.678      37.681      40.215      37.681    
  31.678      25.494      20.832      16.628      13.167      11.011      10.187      10.374      11.151      12.147    
  13.064      13.692      21.524      21.002      19.561      17.386      14.878      12.586      11.011      10.454    
  11.011      12.586      14.878      17.386      19.561      21.002      21.524      21.002      19.561      17.386    
  14.878      12.586      11.011      10.454      11.011      12.586      14.878      17.386      19.561      21.002    
  40.215      37.681      31.678      25.494      20.832      16.628      13.167      11.011      10.187      10.374    
  11.151      12.147      13.064      13.692      13.913      13.692      13.064      12.147      11.151      10.374    
  10.187      11.011      13.167      16.628      20.832      25.494      31.678      37.681      96.717      88.650    
  68.655      46.388      30.306      22.052      16.628      12.586      10.374      9.5908      9.5327      9.6934    
  9.8746      10.019      10.077      10.019      9.8746      9.6934      9.5327      9.5908      10.374      12.586    
  16.628      22.052      30.306      46.388      68.655      88.650      211.03      193.49      148.87      96.088    
  53.767      30.306      20.832      14.878      11.151      9.5327      8.9917      8.7366      8.5927      8.5888    
  8.6189      8.5888      8.5927      8.7366      8.9917      9.5327      11.151      14.878      20.832      30.306    
  53.767      96.088      148.87      193.49      379.51      349.35      271.62      176.83      96.088      46.388    
  25.494      17.386      12.147      9.6934      8.7366      8.1341      7.7409      7.6851      7.7371      7.6851    
  7.7409      8.1341      8.7366      9.6934      12.147      17.386      25.494      46.388      96.088      176.83    
  271.62      349.35      567.95      524.38      411.42      271.62      148.87      68.655      31.678      19.561    
  13.064      9.8746      8.5927      7.7409      7.1926      7.1633      7.2701      7.1633      7.1926      7.7409    
  8.5927      9.8746      13.064      19.561      31.678      68.655      148.87      271.62      411.42      524.38    
  719.04      664.94      524.38      349.35      193.49      88.650      37.681      21.002      13.692      10.019    
  8.5888      7.6851      7.1633      7.2654      7.4560      7.2654      7.1633      7.6851      8.5888      10.019    
  13.692      21.002      37.681      88.650      193.49      349.35      524.38      664.94      614.81      567.95    
  446.37      295.59      162.53      74.702      33.463      20.037      13.257      9.9048      8.5842      7.7399    
  7.2315      7.2701      7.4135      7.2701      7.2315      7.7399      8.5842      9.9048      13.257      20.037    
  33.463      74.702      162.53      295.59      446.37      567.95      567.95      524.38      411.42      271.62    
  148.87      68.655      31.678      19.561      13.064      9.8746      8.5927      7.7409      7.1926      7.1633    
  7.2701      7.1633      7.1926      7.7409      8.5927      9.8746      13.064      19.561      31.678      68.655    
  148.87      271.62      411.42      524.38      446.37      411.42      321.06      210.12      114.33      53.833    
  27.479      18.209      12.518      9.7915      8.6663      7.8813      7.3247      7.1926      7.2315      7.1926    
  7.3247      7.8813      8.6663      9.7915      12.518      18.209      27.479      53.833      114.33      210.12    
  321.06      411.42      295.59      271.62      210.12      135.93      74.164      37.725      23.089      16.221    
  11.729      9.6689      8.8440      8.2902      7.8813      7.7409      7.7399      7.7409      7.8813      8.2902    
  8.8440      9.6689      11.729      16.221      23.089      37.725      74.164      135.93      210.12      271.62    
  162.53      148.87      114.33      74.164      42.967      26.462      19.206      13.997      10.875      9.5434    
  9.0864      8.8440      8.6663      8.5927      8.5842      8.5927      8.6663      8.8440      9.0864      9.5434    
  10.875      13.997      19.206      26.462      42.967      74.164      114.33      148.87      74.702      68.655    
  53.833      37.725      26.462      20.270      15.444      12.011      10.200      9.5808      9.5434      9.6689    
  9.7915      9.8746      9.9048      9.8746      9.7915      9.6689      9.5434      9.5808      10.200      12.011    
  15.444      20.270      26.462      37.725      53.833      68.655      33.463      31.678      27.479      23.089    
  19.206      15.444      12.461      10.663      10.011      10.200      10.875      11.729      12.518      13.064    
  13.257      13.064      12.518      11.729      10.875      10.200      10.011      10.663      12.461      15.444    
  19.206      23.089      27.479      31.678      20.037      19.561      18.209      16.221      13.997      12.011    
  10.663      10.189      10.663      12.011      13.997      16.221      18.209      19.561      20.037      19.561    
  18.209      16.221      13.997      12.011      10.663      10.189      10.663      12.011      13.997      16.221    
  18.209      19.561      13.257      13.064      12.518      11.729      10.875      10.200      10.011      10.663    
  12.461      15.444      19.206      23.089      27.479      31.678      33.463      31.678      27.479      23.089    
  19.206      15.444      12.461      10.663      10.011      10.200      10.875      11.729      12.518      13.064    
  9.9048      9.8746      9.7915      9.6689      9.5434      9.5808      10.200      12.011      15.444      20.270    
  26.462      37.725      53.833      68.655      74.702      68.655      53.833      37.725      26.462      20.270    
  15.444      12.011      10.200      9.5808      9.5434      9.6689      9.7915      9.8746      8.5842      8.5927    
  8.6663      8.8440      9.0864      9.5434      10.875      13.997      19.206      26.462      42.967      74.164    
  114.33      148.87      162.53      148.87      114.33      74.164      42.967      26.462      19.206      13.997    
  10.875      9.5434      9.0864      8.8440      8.6663      8.5927      7.7399      7.7409      7.8813      8.2902    
  8.8440      9.6689      11.729      16.221      23.089      37.725      74.164      135.93      210.12      271.62    
  295.59      271.62      210.12      135.93      74.164      37.725      23.089      16.221      11.729      9.6689    
  8.8440      8.2902      7.8813      7.7409      7.2315      7.1926      7.3247      7.8813      8.6663      9.7915    
  12.518      18.209      27.479      53.833      114.33      210.12      321.06      411.42      446.37      411.42    
  321.06      210.12      114.33      53.833      27.479      18.209      12.518      9.7915      8.6663      7.8813    
  7.3247      7.1926      7.2701      7.1633      7.1926      7.7409      8.5927      9.8746      13.064      19.561    
  31.678      68.655      148.87      271.62      411.42      524.38      567.95      524.38      411.42      271.62    
  148.87      68.655      31.678      19.561      13.064      9.8746      8.5927      7.7409      7.1926      7.1633    
  7.4135      7.2701      7.2315      7.7399      8.5842      9.9048      13.257      20.037      33.463      74.702    
  162.53      295.59      446.37      567.95      614.81      567.95      446.37      295.59      162.53      74.702    
  33.463      20.037      13.257      9.9048      8.5842      7.7399      7.2315      7.2701      7.2701      7.1633    
  7.1926      7.7409      8.5927      9.8746      13.064      19.561      31.678      68.655      148.87      271.62    
  411.42      524.38      567.95      524.38      411.42      271.62      148.87      68.655      31.678      19.561    
  13.064      9.8746      8.5927      7.7409      7.1926      7.1633      7.2315      7.1926      7.3247      7.8813    
  8.6663      9.7915      12.518      18.209      27.479      53.833      114.33      210.12      321.06      411.42    
  446.37      411.42      321.06      210.12      114.33      53.833      27.479      18.209      12.518      9.7915    
  8.6663      7.8813      7.3247      7.1926      7.7399      7.7409      7.8813      8.2902      8.8440      9.6689    
  11.729      16.221      23.089      37.725      74.164      135.93      210.12      271.62      295.59      271.62    
  210.12      135.93      74.164      37.725      23.089      16.221      11.729      9.6689      8.8440      8.2902    
  7.8813      7.7409      8.5842      8.5927      8.6663      8.8440      9.0864      9.5434      10.875      13.997    
  19.206      26.462      42.967      74.164      114.33      148.87      162.53      148.87      114.33      74.164    
  42.967      26.462      19.206      13.997      10.875      9.5434      9.0864      8.8440      8.6663      8.5927    
  9.9048      9.8746      9.7915      9.6689      9.5434      9.5808      10.200      12.011      15.444      20.270    
  26.462      37.725      53.833      68.655      74.702      68.655      53.833      37.725      26.462      20.270    
  15.444      12.011      10.200      9.5808      9.5434      9.6689      9.7915      9.8746      13.257      13.064    
  12.518      11.729      10.875      10.200      10.011      10.663      12.461      15.444      19.206      23.089    
  27.479      31.678      33.463      31.678      27.479      23.089      19.206      15.444      12.461      10.663    
  10.011      10.200      10.875      11.729      12.518      13.064      20.037      19.561      18.209      16.221    
  13.997      12.011      10.663      10.189      10.663      12.011      13.997      16.221      18.209      19.561    
  20.037      19.561      18.209      16.221      13.997      12.011      10.663      10.189      10.663      12.011    
  13.997      16.221      18.209      19.561      33.463      31.678      27.479      23.089      19.206      15.444    
  12.461      10.663      10.011      10.200      10.875      11.729      12.518      13.064      13.257      13.064    
  12.518      11.729      10.875      10.200      10.011      10.663      12.461      15.444      19.206      23.089    
  27.479      31.678      74.702      68.655      53.833      37.725      26.462      20.270      15.444      12.011    
  10.200      9.5808      9.5434      9.6689      9.7915      9.8746      9.9048      9.8746      9.7915      9.6689    
  9.5434      9.5808      10.200      12.011      15.444      20.270      26.462      37.725      53.833      68.655    
  162.53      148.87      114.33      74.164      42.967      26.462      19.206      13.997      10.875      9.5434    
  9.0864      8.8440      8.6663      8.5927      8.5842      8.5927      8.6663      8.8440      9.0864      9.5434    
  10.875      13.997      19.206      26.462      42.967      74.164      114.33      148.87      295.59      271.62    
  210.12      135.93      74.164      37.725      23.089      16.221      11.729      9.6689      8.8440      8.2902    
  7.8813      7.7409      7.7399      7.7409      7.8813      8.2902      8.8440      9.6689      11.729      16.221    
  23.089      37.725      74.164      135.93      210.12      271.62      446.37      411.42      321.06      210.12    
  114.33      53.833      27.479      18.209      12.518      9.7915      8.6663      7.8813      7.3247      7.1926    
  7.2315      7.1926      7.3247      7.8813      8.6663      9.7915      12.518      18.209      27.479      53.833    
  114.33      210.12      321.06      411.42      567.95      524.38      411.42      271.62      148.87      68.655    
  31.678      19.561      13.064      9.8746      8.5927      7.7409      7.1926      7.1633      7.2701      7.1633    
  7.1926      7.7409      8.5927      9.8746      13.064      19.561      31.678      68.655      148.87      271.62    
  411.42      524.38      412.02      379.51      295.59      192.92      104.89      49.996      26.492      17.807    
  12.297      9.6981      8.7022      8.1019      7.7399      7.7371      7.8174      7.7371      7.7399      8.1019    
  8.7022      9.6981      12.297      17.807      26.492      49.996      104.89      192.92      295.59      379.51    
  379.51      349.35      271.62      176.83      96.088      46.388      25.494      17.386      12.147      9.6934    
  8.7366      8.1341      7.7409      7.6851      7.7371      7.6851      7.7409      8.1341      8.7366      9.6934    
  12.147      17.386      25.494      46.388      96.088      176.83      271.62      349.35      295.59      271.62    
  210.12      135.93      74.164      37.725      23.089      16.221      11.729      9.6689      8.8440      8.2902    
  7.8813      7.7409      7.7399      7.7409      7.8813      8.2902      8.8440      9.6689      11.729      16.221    
  23.089      37.725      74.164      135.93      210.12      271.62      192.92      176.83      135.93      87.773    
  49.524      28.676      20.169      14.578      11.134      9.6080      9.0062      8.6084      8.2902      8.1341    