unknown system                          
   1.00000000000000     
     3.635000    0.000000    0.000000
     0.000000    3.635000    0.000000
     0.000000    0.000000    3.635000
   Cu
     4
Direct
  0.000000  0.000000  0.000000
  0.500000  0.500000  0.000000
  0.500000  0.000000  0.500000
  0.000000  0.500000  0.500000
 
   28   28   28
 0.83956393711E+03 0.77715176566E+03 0.61480818174E+03 0.41201917656E+03 0.23004374554E+03
 0.10556814799E+03 0.43054389438E+02 0.22082002883E+02 0.14144037948E+02 0.10146727338E+02
 0.86685619564E+01 0.78173643032E+01 0.74135253333E+01 0.76910794227E+01 0.79741631483E+01
 0.76910794227E+01 0.74135253333E+01 0.78173643032E+01 0.86685619564E+01 0.10146727338E+02
 0.14144037948E+02 0.22082002883E+02 0.43054389438E+02 0.10556814799E+03 0.23004374554E+03
 0.41201917656E+03 0.61480818174E+03 0.77715176566E+03 0.77715176566E+03 0.71903791078E+03
 0.56795066006E+03 0.37950642867E+03 0.21102798203E+03 0.96716623907E+02 0.40214594376E+02
 0.21524473944E+02 0.13913154198E+02 0.10076651854E+02 0.86188889140E+01 0.77370977880E+01
 0.72700857668E+01 0.74559985558E+01 0.76910794227E+01 0.74559985558E+01 0.72700857668E+01
 0.77370977880E+01 0.86188889140E+01 0.10076651854E+02 0.13913154198E+02 0.21524473944E+02
 0.40214594376E+02 0.96716623907E+02 0.21102798203E+03 0.37950642867E+03 0.56795066006E+03
 0.71903791078E+03 0.61480818174E+03 0.56795066006E+03 0.44637463442E+03 0.29559333535E+03
 0.16253488876E+03 0.74701564959E+02 0.33463098686E+02 0.20036548948E+02 0.13256874575E+02
 0.99048367641E+01 0.85841776968E+01 0.77399238030E+01 0.72315018679E+01 0.72700857668E+01
 0.74135253333E+01 0.72700857668E+01 0.72315018679E+01 0.77399238030E+01 0.85841776968E+01
 0.99048367641E+01 0.13256874575E+02 0.20036548948E+02 0.33463098686E+02 0.74701564959E+02
 0.16253488876E+03 0.29559333535E+03 0.44637463442E+03 0.56795066006E+03 0.41201917656E+03
 0.37950642867E+03 0.29559333535E+03 0.19292302538E+03 0.10489456186E+03 0.49996384348E+02
 0.26492416527E+02 0.17807223050E+02 0.12296521584E+02 0.96980553646E+01 0.87021828599E+01
 0.81019219862E+01 0.77399238030E+01 0.77370977880E+01 0.78173643032E+01 0.77370977880E+01
 0.77399238030E+01 0.81019219862E+01 0.87021828599E+01 0.96980553646E+01 0.12296521584E+02
 0.17807223050E+02 0.26492416527E+02 0.49996384348E+02 0.10489456186E+03 0.19292302538E+03
 0.29559333535E+03 0.37950642867E+03 0.23004374554E+03 0.21102798203E+03 0.16253488876E+03
 0.10489456186E+03 0.58225552901E+02 0.31938553981E+02 0.21420688254E+02 0.15205303825E+02
 0.11253025640E+02 0.95236168196E+01 0.89531483550E+01 0.87021828599E+01 0.85841776968E+01
 0.86188889140E+01 0.86685619564E+01 0.86188889140E+01 0.85841776968E+01 0.87021828599E+01
 0.89531483550E+01 0.95236168196E+01 0.11253025640E+02 0.15205303825E+02 0.21420688254E+02
 0.31938553981E+02 0.58225552901E+02 0.10489456186E+03 0.16253488876E+03 0.21102798203E+03
 0.10556814799E+03 0.96716623907E+02 0.74701564959E+02 0.49996384348E+02 0.31938553981E+02
 0.22719631409E+02 0.17071907489E+02 0.12808747763E+02 0.10442044298E+02 0.95924623340E+01
 0.95236168196E+01 0.96980553646E+01 0.99048367641E+01 0.10076651854E+02 0.10146727338E+02
 0.10076651854E+02 0.99048367641E+01 0.96980553646E+01 0.95236168196E+01 0.95924623340E+01
 0.10442044298E+02 0.12808747763E+02 0.17071907489E+02 0.22719631409E+02 0.31938553981E+02
 0.49996384348E+02 0.74701564959E+02 0.96716623907E+02 0.43054389438E+02 0.40214594376E+02
 0.33463098686E+02 0.26492416527E+02 0.21420688254E+02 0.17071907489E+02 0.13442343217E+02
 0.11152558143E+02 0.10261757786E+02 0.10442044298E+02 0.11253025640E+02 0.12296521584E+02
 0.13256874575E+02 0.13913154198E+02 0.14144037948E+02 0.13913154198E+02 0.13256874575E+02
 0.12296521584E+02 0.11253025640E+02 0.10442044298E+02 0.10261757786E+02 0.11152558143E+02
 0.13442343217E+02 0.17071907489E+02 0.21420688254E+02 0.26492416527E+02 0.33463098686E+02
 0.40214594376E+02 0.22082002883E+02 0.21524473944E+02 0.20036548948E+02 0.17807223050E+02
 0.15205303825E+02 0.12808747763E+02 0.11152558143E+02 0.10566213279E+02 0.11152558143E+02
 0.12808747763E+02 0.15205303825E+02 0.17807223050E+02 0.20036548948E+02 0.21524473944E+02
 0.22082002883E+02 0.21524473944E+02 0.20036548948E+02 0.17807223050E+02 0.15205303825E+02
 0.12808747763E+02 0.11152558143E+02 0.10566213279E+02 0.11152558143E+02 0.12808747763E+02
 0.15205303825E+02 0.17807223050E+02 0.20036548948E+02 0.21524473944E+02 0.14144037948E+02
 0.13913154198E+02 0.13256874575E+02 0.12296521584E+02 0.11253025640E+02 0.10442044298E+02
 0.10261757786E+02 0.11152558143E+02 0.13442343217E+02 0.17071907489E+02 0.21420688254E+02
 0.26492416527E+02 0.33463098686E+02 0.40214594376E+02 0.43054389438E+02 0.40214594376E+02
 0.33463098686E+02 0.26492416527E+02 0.21420688254E+02 0.17071907489E+02 0.13442343217E+02
 0.11152558143E+02 0.10261757786E+02 0.10442044298E+02 0.11253025640E+02 0.12296521584E+02
 0.13256874575E+02 0.13913154198E+02 0.10146727338E+02 0.10076651854E+02 0.99048367641E+01
 0.96980553646E+01 0.95236168196E+01 0.95924623340E+01 0.10442044298E+02 0.12808747763E+02
 0.17071907489E+02 0.22719631409E+02 0.31938553981E+02 0.49996384348E+02 0.74701564959E+02
 0.96716623907E+02 0.10556814799E+03 0.96716623907E+02 0.74701564959E+02 0.49996384348E+02
 0.31938553981E+02 0.22719631409E+02 0.17071907489E+02 0.12808747763E+02 0.10442044298E+02
 0.95924623340E+01 0.95236168196E+01 0.96980553646E+01 0.99048367641E+01 0.10076651854E+02
 0.86685619564E+01 0.86188889140E+01 0.85841776968E+01 0.87021828599E+01 0.89531483550E+01
 0.95236168196E+01 0.11253025640E+02 0.15205303825E+02 0.21420688254E+02 0.31938553981E+02
 0.58225552901E+02 0.10489456186E+03 0.16253488876E+03 0.21102798203E+03 0.23004374554E+03
 0.21102798203E+03 0.16253488876E+03 0.10489456186E+03 0.58225552901E+02 0.31938553981E+02
 0.21420688254E+02 0.15205303825E+02 0.11253025640E+02 0.95236168196E+01 0.89531483550E+01
 0.87021828599E+01 0.85841776968E+01 0.86188889140E+01 0.78173643032E+01 0.77370977880E+01
 0.77399238030E+01 0.81019219862E+01 0.87021828599E+01 0.96980553646E+01 0.12296521584E+02
 0.17807223050E+02 0.26492416527E+02 0.49996384348E+02 0.10489456186E+03 0.19292302538E+03
 0.29559333535E+03 0.37950642867E+03 0.41201917656E+03 0.37950642867E+03 0.29559333535E+03
 0.19292302538E+03 0.10489456186E+03 0.49996384348E+02 0.26492416527E+02 0.17807223050E+02
 0.12296521584E+02 0.96980553646E+01 0.87021828599E+01 0.81019219862E+01 0.77399238030E+01
 0.77370977880E+01 0.74135253333E+01 0.72700857668E+01 0.72315018679E+01 0.77399238030E+01
 0.85841776968E+01 0.99048367641E+01 0.13256874575E+02 0.20036548948E+02 0.33463098686E+02
 0.74701564959E+02 0.16253488876E+03 0.29559333535E+03 0.44637463442E+03 0.56795066006E+03
 0.61480818174E+03 0.56795066006E+03 0.44637463442E+03 0.29559333535E+03 0.16253488876E+03
 0.74701564959E+02 0.33463098686E+02 0.20036548948E+02 0.13256874575E+02 0.99048367641E+01
 0.85841776968E+01 0.77399238030E+01 0.72315018679E+01 0.72700857668E+01 0.76910794227E+01
 0.74559985558E+01 0.72700857668E+01 0.77370977880E+01 0.86188889140E+01 0.10076651854E+02
 0.13913154198E+02 0.21524473944E+02 0.40214594376E+02 0.96716623907E+02 0.21102798203E+03
 0.37950642867E+03 0.56795066006E+03 0.71903791078E+03 0.77715176566E+03 0.71903791078E+03
 0.56795066006E+03 0.37950642867E+03 0.21102798203E+03 0.96716623907E+02 0.40214594376E+02
 0.21524473944E+02 0.13913154198E+02 0.10076651854E+02 0.86188889140E+01 0.77370977880E+01
 0.72700857668E+01 0.74559985558E+01 0.79741631483E+01 0.76910794227E+01 0.74135253333E+01
 0.78173643032E+01 0.86685619564E+01 0.10146727338E+02 0.14144037948E+02 0.22082002883E+02
 0.43054389438E+02 0.10556814799E+03 0.23004374554E+03 0.41201917656E+03 0.61480818174E+03
 0.77715176566E+03 0.83956393711E+03 0.77715176566E+03 0.61480818174E+03 0.41201917656E+03
 0.23004374554E+03 0.10556814799E+03 0.43054389438E+02 0.22082002883E+02 0.14144037948E+02
 0.10146727338E+02 0.86685619564E+01 0.78173643032E+01 0.74135253333E+01 0.76910794227E+01
 0.76910794227E+01 0.74559985558E+01 0.72700857668E+01 0.77370977880E+01 0.86188889140E+01
 0.10076651854E+02 0.13913154198E+02 0.21524473944E+02 0.40214594376E+02 0.96716623907E+02
 0.21102798203E+03 0.37950642867E+03 0.56795066006E+03 0.71903791078E+03 0.77715176566E+03
 0.71903791078E+03 0.56795066006E+03 0.37950642867E+03 0.21102798203E+03 0.96716623907E+02
 0.40214594376E+02 0.21524473944E+02 0.13913154198E+02 0.10076651854E+02 0.86188889140E+01
 0.77370977880E+01 0.72700857668E+01 0.74559985558E+01 0.74135253333E+01 0.72700857668E+01
 0.72315018679E+01 0.77399238030E+01 0.85841776968E+01 0.99048367641E+01 0.13256874575E+02
 0.20036548948E+02 0.33463098686E+02 0.74701564959E+02 0.16253488876E+03 0.29559333535E+03
 0.44637463442E+03 0.56795066006E+03 0.61480818174E+03 0.56795066006E+03 0.44637463442E+03
 0.29559333535E+03 0.16253488876E+03 0.74701564959E+02 0.33463098686E+02 0.20036548948E+02
 0.13256874575E+02 0.99048367641E+01 0.85841776968E+01 0.77399238030E+01 0.72315018679E+01
 0.72700857668E+01 0.78173643032E+01 0.77370977880E+01 0.77399238030E+01 0.81019219862E+01
 0.87021828599E+01 0.96980553646E+01 0.12296521584E+02 0.17807223050E+02 0.26492416527E+02
 0.49996384348E+02 0.10489456186E+03 0.19292302538E+03 0.29559333535E+03 0.37950642867E+03
 0.41201917656E+03 0.37950642867E+03 0.29559333535E+03 0.19292302538E+03 0.10489456186E+03
 0.49996384348E+02 0.26492416527E+02 0.17807223050E+02 0.12296521584E+02 0.96980553646E+01
 0.87021828599E+01 0.81019219862E+01 0.77399238030E+01 0.77370977880E+01 0.86685619564E+01
 0.86188889140E+01 0.85841776968E+01 0.87021828599E+01 0.89531483550E+01 0.95236168196E+01
 0.11253025640E+02 0.15205303825E+02 0.21420688254E+02 0.31938553981E+02 0.58225552901E+02
 0.10489456186E+03 0.16253488876E+03 0.21102798203E+03 0.23004374554E+03 0.21102798203E+03
 0.16253488876E+03 0.10489456186E+03 0.58225552901E+02 0.31938553981E+02 0.21420688254E+02
 0.15205303825E+02 0.11253025640E+02 0.95236168196E+01 0.89531483550E+01 0.87021828599E+01
 0.85841776968E+01 0.86188889140E+01 0.10146727338E+02 0.10076651854E+02 0.99048367641E+01
 0.96980553646E+01 0.95236168196E+01 0.95924623340E+01 0.10442044298E+02 0.12808747763E+02
 0.17071907489E+02 0.22719631409E+02 0.31938553981E+02 0.49996384348E+02 0.74701564959E+02
 0.96716623907E+02 0.10556814799E+03 0.96716623907E+02 0.74701564959E+02 0.49996384348E+02
 0.31938553981E+02 0.22719631409E+02 0.17071907489E+02 0.12808747763E+02 0.10442044298E+02
 0.95924623340E+01 0.95236168196E+01 0.96980553646E+01 0.99048367641E+01 0.10076651854E+02
 0.14144037948E+02 0.13913154198E+02 0.13256874575E+02 0.12296521584E+02 0.11253025640E+02
 0.10442044298E+02 0.10261757786E+02 0.11152558143E+02 0.13442343217E+02 0.17071907489E+02
 0.21420688254E+02 0.26492416527E+02 0.33463098686E+02 0.40214594376E+02 0.43054389438E+02
 0.40214594376E+02 0.33463098686E+02 0.26492416527E+02 0.21420688254E+02 0.17071907489E+02
 0.13442343217E+02 0.11152558143E+02 0.10261757786E+02 0.10442044298E+02 0.11253025640E+02
 0.12296521584E+02 0.13256874575E+02 0.13913154198E+02 0.22082002883E+02 0.21524473944E+02
 0.20036548948E+02 0.17807223050E+02 0.15205303825E+02 0.12808747763E+02 0.11152558143E+02
 0.10566213279E+02 0.11152558143E+02 0.12808747763E+02 0.15205303825E+02 0.17807223050E+02
 0.20036548948E+02 0.21524473944E+02 0.22082002883E+02 0.21524473944E+02 0.20036548948E+02
 0.17807223050E+02 0.15205303825E+02 0.12808747763E+02 0.11152558143E+02 0.10566213279E+02
 0.11152558143E+02 0.12808747763E+02 0.15205303825E+02 0.17807223050E+02 0.20036548948E+02
 0.21524473944E+02 0.43054389438E+02 0.40214594376E+02 0.33463098686E+02 0.26492416527E+02
 0.21420688254E+02 0.17071907489E+02 0.13442343217E+02 0.11152558143E+02 0.10261757786E+02
 0.10442044298E+02 0.11253025640E+02 0.12296521584E+02 0.13256874575E+02 0.13913154198E+02
 0.14144037948E+02 0.13913154198E+02 0.13256874575E+02 0.12296521584E+02 0.11253025640E+02
 0.10442044298E+02 0.10261757786E+02 0.11152558143E+02 0.13442343217E+02 0.17071907489E+02
 0.21420688254E+02 0.26492416527E+02 0.33463098686E+02 0.40214594376E+02 0.10556814799E+03
 0.96716623907E+02 0.74701564959E+02 0.49996384348E+02 0.31938553981E+02 0.22719631409E+02
 0.17071907489E+02 0.12808747763E+02 0.10442044298E+02 0.95924623340E+01 0.95236168196E+01
 0.96980553646E+01 0.99048367641E+01 0.10076651854E+02 0.10146727338E+02 0.10076651854E+02
 0.99048367641E+01 0.96980553646E+01 0.95236168196E+01 0.95924623340E+01 0.10442044298E+02
 0.12808747763E+02 0.17071907489E+02 0.22719631409E+02 0.31938553981E+02 0.49996384348E+02
 0.74701564959E+02 0.96716623907E+02 0.23004374554E+03 0.21102798203E+03 0.16253488876E+03
 0.10489456186E+03 0.58225552901E+02 0.31938553981E+02 0.21420688254E+02 0.15205303825E+02
 0.11253025640E+02 0.95236168196E+01 0.89531483550E+01 0.87021828599E+01 0.85841776968E+01
 0.86188889140E+01 0.86685619564E+01 0.86188889140E+01 0.85841776968E+01 0.87021828599E+01
 0.89531483550E+01 0.95236168196E+01 0.11253025640E+02 0.15205303825E+02 0.21420688254E+02
 0.31938553981E+02 0.58225552901E+02 0.10489456186E+03 0.16253488876E+03 0.21102798203E+03
 0.41201917656E+03 0.37950642867E+03 0.29559333535E+03 0.19292302538E+03 0.10489456186E+03
 0.49996384348E+02 0.26492416527E+02 0.17807223050E+02 0.12296521584E+02 0.96980553646E+01
 0.87021828599E+01 0.81019219862E+01 0.77399238030E+01 0.77370977880E+01 0.78173643032E+01
 0.77370977880E+01 0.77399238030E+01 0.81019219862E+01 0.87021828599E+01 0.96980553646E+01
 0.12296521584E+02 0.17807223050E+02 0.26492416527E+02 0.49996384348E+02 0.10489456186E+03
 0.19292302538E+03 0.29559333535E+03 0.37950642867E+03 0.61480818174E+03 0.56795066006E+03
 0.44637463442E+03 0.29559333535E+03 0.16253488876E+03 0.74701564959E+02 0.33463098686E+02
 0.20036548948E+02 0.13256874575E+02 0.99048367641E+01 0.85841776968E+01 0.77399238030E+01
 0.72315018679E+01 0.72700857668E+01 0.74135253333E+01 0.72700857668E+01 0.72315018679E+01
 0.77399238030E+01 0.85841776968E+01 0.99048367641E+01 0.13256874575E+02 0.20036548948E+02
 0.33463098686E+02 0.74701564959E+02 0.16253488876E+03 0.29559333535E+03 0.44637463442E+03
 0.56795066006E+03 0.77715176566E+03 0.71903791078E+03 0.56795066006E+03 0.37950642867E+03
 0.21102798203E+03 0.96716623907E+02 0.40214594376E+02 0.21524473944E+02 0.13913154198E+02
 0.10076651854E+02 0.86188889140E+01 0.77370977880E+01 0.72700857668E+01 0.74559985558E+01
 0.76910794227E+01 0.74559985558E+01 0.72700857668E+01 0.77370977880E+01 0.86188889140E+01
 0.10076651854E+02 0.13913154198E+02 0.21524473944E+02 0.40214594376E+02 0.96716623907E+02
 0.21102798203E+03 0.37950642867E+03 0.56795066006E+03 0.71903791078E+03 0.77715176566E+03
 0.71903791078E+03 0.56795066006E+03 0.37950642867E+03 0.21102798203E+03 0.96716623907E+02
 0.40214594376E+02 0.21524473944E+02 0.13913154198E+02 0.10076651854E+02 0.86188889140E+01
 0.77370977880E+01 0.72700857668E+01 0.74559985558E+01 0.76910794227E+01 0.74559985558E+01
 0.72700857668E+01 0.77370977880E+01 0.86188889140E+01 0.10076651854E+02 0.13913154198E+02
 0.21524473944E+02 0.40214594376E+02 0.96716623907E+02 0.21102798203E+03 0.37950642867E+03
 0.56795066006E+03 0.71903791078E+03 0.71903791078E+03 0.66494101329E+03 0.52437788861E+03
 0.34935201069E+03 0.19349290981E+03 0.88649731151E+02 0.37680512179E+02 0.21002191236E+02
 0.13691794982E+02 0.10018927093E+02 0.85888068497E+01 0.76850935263E+01 0.71633122390E+01
 0.72653891818E+01 0.74559985558E+01 0.72653891818E+01 0.71633122390E+01 0.76850935263E+01
 0.85888068497E+01 0.10018927093E+02 0.13691794982E+02 0.21002191236E+02 0.37680512179E+02
 0.88649731151E+02 0.19349290981E+03 0.34935201069E+03 0.52437788861E+03 0.66494101329E+03
 0.56795066006E+03 0.52437788861E+03 0.41141579931E+03 0.27162401648E+03 0.14886816562E+03
 0.68654567989E+02 0.31678037954E+02 0.19561139873E+02 0.13063663384E+02 0.98745774392E+01
 0.85926578519E+01 0.77409086419E+01 0.71925805373E+01 0.71633122390E+01 0.72700857668E+01
 0.71633122390E+01 0.71925805373E+01 0.77409086419E+01 0.85926578519E+01 0.98745774392E+01
 0.13063663384E+02 0.19561139873E+02 0.31678037954E+02 0.68654567989E+02 0.14886816562E+03
 0.27162401648E+03 0.41141579931E+03 0.52437788861E+03 0.37950642867E+03 0.34935201069E+03
 0.27162401648E+03 0.17682504333E+03 0.96088290045E+02 0.46387507534E+02 0.25493538596E+02
 0.17386119990E+02 0.12146620752E+02 0.96933932179E+01 0.87366071744E+01 0.81340958759E+01
 0.77409086419E+01 0.76850935263E+01 0.77370977880E+01 0.76850935263E+01 0.77409086419E+01
 0.81340958759E+01 0.87366071744E+01 0.96933932179E+01 0.12146620752E+02 0.17386119990E+02
 0.25493538596E+02 0.46387507534E+02 0.96088290045E+02 0.17682504333E+03 0.27162401648E+03
 0.34935201069E+03 0.21102798203E+03 0.19349290981E+03 0.14886816562E+03 0.96088290045E+02
 0.53767023307E+02 0.30306360879E+02 0.20832245447E+02 0.14877529118E+02 0.11151094947E+02
 0.95326913258E+01 0.89917087786E+01 0.87366071744E+01 0.85926578519E+01 0.85888068497E+01
 0.86188889140E+01 0.85888068497E+01 0.85926578519E+01 0.87366071744E+01 0.89917087786E+01
 0.95326913258E+01 0.11151094947E+02 0.14877529118E+02 0.20832245447E+02 0.30306360879E+02
 0.53767023307E+02 0.96088290045E+02 0.14886816562E+03 0.19349290981E+03 0.96716623907E+02
 0.88649731151E+02 0.68654567989E+02 0.46387507534E+02 0.30306360879E+02 0.22051901152E+02
 0.16628126583E+02 0.12586369657E+02 0.10373616715E+02 0.95907500241E+01 0.95326913258E+01
 0.96933932179E+01 0.98745774392E+01 0.10018927093E+02 0.10076651854E+02 0.10018927093E+02
 0.98745774392E+01 0.96933932179E+01 0.95326913258E+01 0.95907500241E+01 0.10373616715E+02
 0.12586369657E+02 0.16628126583E+02 0.22051901152E+02 0.30306360879E+02 0.46387507534E+02
 0.68654567989E+02 0.88649731151E+02 0.40214594376E+02 0.37680512179E+02 0.31678037954E+02
 0.25493538596E+02 0.20832245447E+02 0.16628126583E+02 0.13167424920E+02 0.11010708618E+02
 0.10187419761E+02 0.10373616715E+02 0.11151094947E+02 0.12146620752E+02 0.13063663384E+02
 0.13691794982E+02 0.13913154198E+02 0.13691794982E+02 0.13063663384E+02 0.12146620752E+02
 0.11151094947E+02 0.10373616715E+02 0.10187419761E+02 0.11010708618E+02 0.13167424920E+02
 0.16628126583E+02 0.20832245447E+02 0.25493538596E+02 0.31678037954E+02 0.37680512179E+02
 0.21524473944E+02 0.21002191236E+02 0.19561139873E+02 0.17386119990E+02 0.14877529118E+02
 0.12586369657E+02 0.11010708618E+02 0.10454027317E+02 0.11010708618E+02 0.12586369657E+02
 0.14877529118E+02 0.17386119990E+02 0.19561139873E+02 0.21002191236E+02 0.21524473944E+02
 0.21002191236E+02 0.19561139873E+02 0.17386119990E+02 0.14877529118E+02 0.12586369657E+02
 0.11010708618E+02 0.10454027317E+02 0.11010708618E+02 0.12586369657E+02 0.14877529118E+02
 0.17386119990E+02 0.19561139873E+02 0.21002191236E+02 0.13913154198E+02 0.13691794982E+02
 0.13063663384E+02 0.12146620752E+02 0.11151094947E+02 0.10373616715E+02 0.10187419761E+02
 0.11010708618E+02 0.13167424920E+02 0.16628126583E+02 0.20832245447E+02 0.25493538596E+02
 0.31678037954E+02 0.37680512179E+02 0.40214594376E+02 0.37680512179E+02 0.31678037954E+02
 0.25493538596E+02 0.20832245447E+02 0.16628126583E+02 0.13167424920E+02 0.11010708618E+02
 0.10187419761E+02 0.10373616715E+02 0.11151094947E+02 0.12146620752E+02 0.13063663384E+02
 0.13691794982E+02 0.10076651854E+02 0.10018927093E+02 0.98745774392E+01 0.96933932179E+01
 0.95326913258E+01 0.95907500241E+01 0.10373616715E+02 0.12586369657E+02 0.16628126583E+02
 0.22051901152E+02 0.30306360879E+02 0.46387507534E+02 0.68654567989E+02 0.88649731151E+02
 0.96716623907E+02 0.88649731151E+02 0.68654567989E+02 0.46387507534E+02 0.30306360879E+02
 0.22051901152E+02 0.16628126583E+02 0.12586369657E+02 0.10373616715E+02 0.95907500241E+01
 0.95326913258E+01 0.96933932179E+01 0.98745774392E+01 0.10018927093E+02 0.86188889140E+01
 0.85888068497E+01 0.85926578519E+01 0.87366071744E+01 0.89917087786E+01 0.95326913258E+01
 0.11151094947E+02 0.14877529118E+02 0.20832245447E+02 0.30306360879E+02 0.53767023307E+02
 0.96088290045E+02 0.14886816562E+03 0.19349290981E+03 0.21102798203E+03 0.19349290981E+03
 0.14886816562E+03 0.96088290045E+02 0.53767023307E+02 0.30306360879E+02 0.20832245447E+02
 0.14877529118E+02 0.11151094947E+02 0.95326913258E+01 0.89917087786E+01 0.87366071744E+01
 0.85926578519E+01 0.85888068497E+01 0.77370977880E+01 0.76850935263E+01 0.77409086419E+01
 0.81340958759E+01 0.87366071744E+01 0.96933932179E+01 0.12146620752E+02 0.17386119990E+02
 0.25493538596E+02 0.46387507534E+02 0.96088290045E+02 0.17682504333E+03 0.27162401648E+03
 0.34935201069E+03 0.37950642867E+03 0.34935201069E+03 0.27162401648E+03 0.17682504333E+03
 0.96088290045E+02 0.46387507534E+02 0.25493538596E+02 0.17386119990E+02 0.12146620752E+02
 0.96933932179E+01 0.87366071744E+01 0.81340958759E+01 0.77409086419E+01 0.76850935263E+01
 0.72700857668E+01 0.71633122390E+01 0.71925805373E+01 0.77409086419E+01 0.85926578519E+01
 0.98745774392E+01 0.13063663384E+02 0.19561139873E+02 0.31678037954E+02 0.68654567989E+02
 0.14886816562E+03 0.27162401648E+03 0.41141579931E+03 0.52437788861E+03 0.56795066006E+03
 0.52437788861E+03 0.41141579931E+03 0.27162401648E+03 0.14886816562E+03 0.68654567989E+02
 0.31678037954E+02 0.19561139873E+02 0.13063663384E+02 0.98745774392E+01 0.85926578519E+01
 0.77409086419E+01 0.71925805373E+01 0.71633122390E+01 0.74559985558E+01 0.72653891818E+01
 0.71633122390E+01 0.76850935263E+01 0.85888068497E+01 0.10018927093E+02 0.13691794982E+02
 0.21002191236E+02 0.37680512179E+02 0.88649731151E+02 0.19349290981E+03 0.34935201069E+03
 0.52437788861E+03 0.66494101329E+03 0.71903791078E+03 0.66494101329E+03 0.52437788861E+03
 0.34935201069E+03 0.19349290981E+03 0.88649731151E+02 0.37680512179E+02 0.21002191236E+02
 0.13691794982E+02 0.10018927093E+02 0.85888068497E+01 0.76850935263E+01 0.71633122390E+01
 0.72653891818E+01 0.76910794227E+01 0.74559985558E+01 0.72700857668E+01 0.77370977880E+01
 0.86188889140E+01 0.10076651854E+02 0.13913154198E+02 0.21524473944E+02 0.40214594376E+02
 0.96716623907E+02 0.21102798203E+03 0.37950642867E+03 0.56795066006E+03 0.71903791078E+03
 0.77715176566E+03 0.71903791078E+03 0.56795066006E+03 0.37950642867E+03 0.21102798203E+03
 0.96716623907E+02 0.40214594376E+02 0.21524473944E+02 0.13913154198E+02 0.10076651854E+02
 0.86188889140E+01 0.77370977880E+01 0.72700857668E+01 0.74559985558E+01 0.74559985558E+01
 0.72653891818E+01 0.71633122390E+01 0.76850935263E+01 0.85888068497E+01 0.10018927093E+02
 0.13691794982E+02 0.21002191236E+02 0.37680512179E+02 0.88649731151E+02 0.19349290981E+03
 0.34935201069E+03 0.52437788861E+03 0.66494101329E+03 0.71903791078E+03 0.66494101329E+03
 0.52437788861E+03 0.34935201069E+03 0.19349290981E+03 0.88649731151E+02 0.37680512179E+02
 0.21002191236E+02 0.13691794982E+02 0.10018927093E+02 0.85888068497E+01 0.76850935263E+01
 0.71633122390E+01 0.72653891818E+01 0.72700857668E+01 0.71633122390E+01 0.71925805373E+01
 0.77409086419E+01 0.85926578519E+01 0.98745774392E+01 0.13063663384E+02 0.19561139873E+02
 0.31678037954E+02 0.68654567989E+02 0.14886816562E+03 0.27162401648E+03 0.41141579931E+03
 0.52437788861E+03 0.56795066006E+03 0.52437788861E+03 0.41141579931E+03 0.27162401648E+03
 0.14886816562E+03 0.68654567989E+02 0.31678037954E+02 0.19561139873E+02 0.13063663384E+02
 0.98745774392E+01 0.85926578519E+01 0.77409086419E+01 0.71925805373E+01 0.71633122390E+01
 0.77370977880E+01 0.76850935263E+01 0.77409086419E+01 0.81340958759E+01 0.87366071744E+01
 0.96933932179E+01 0.12146620752E+02 0.17386119990E+02 0.25493538596E+02 0.46387507534E+02
 0.96088290045E+02 0.17682504333E+03 0.27162401648E+03 0.34935201069E+03 0.37950642867E+03
 0.34935201069E+03 0.27162401648E+03 0.17682504333E+03 0.96088290045E+02 0.46387507534E+02
 0.25493538596E+02 0.17386119990E+02 0.12146620752E+02 0.96933932179E+01 0.87366071744E+01
 0.81340958759E+01 0.77409086419E+01 0.76850935263E+01 0.86188889140E+01 0.85888068497E+01
 0.85926578519E+01 0.87366071744E+01 0.89917087786E+01 0.95326913258E+01 0.11151094947E+02
 0.14877529118E+02 0.20832245447E+02 0.30306360879E+02 0.53767023307E+02 0.96088290045E+02
 0.14886816562E+03 0.19349290981E+03 0.21102798203E+03 0.19349290981E+03 0.14886816562E+03
 0.96088290045E+02 0.53767023307E+02 0.30306360879E+02 0.20832245447E+02 0.14877529118E+02
 0.11151094947E+02 0.95326913258E+01 0.89917087786E+01 0.87366071744E+01 0.85926578519E+01
 0.85888068497E+01 0.10076651854E+02 0.10018927093E+02 0.98745774392E+01 0.96933932179E+01
 0.95326913258E+01 0.95907500241E+01 0.10373616715E+02 0.12586369657E+02 0.16628126583E+02
 0.22051901152E+02 0.30306360879E+02 0.46387507534E+02 0.68654567989E+02 0.88649731151E+02
 0.96716623907E+02 0.88649731151E+02 0.68654567989E+02 0.46387507534E+02 0.30306360879E+02
 0.22051901152E+02 0.16628126583E+02 0.12586369657E+02 0.10373616715E+02 0.95907500241E+01
 0.95326913258E+01 0.96933932179E+01 0.98745774392E+01 0.10018927093E+02 0.13913154198E+02
 0.13691794982E+02 0.13063663384E+02 0.12146620752E+02 0.11151094947E+02 0.10373616715E+02
 0.10187419761E+02 0.11010708618E+02 0.13167424920E+02 0.16628126583E+02 0.20832245447E+02
 0.25493538596E+02 0.31678037954E+02 0.37680512179E+02 0.40214594376E+02 0.37680512179E+02
 0.31678037954E+02 0.25493538596E+02 0.20832245447E+02 0.16628126583E+02 0.13167424920E+02
 0.11010708618E+02 0.10187419761E+02 0.10373616715E+02 0.11151094947E+02 0.12146620752E+02
 0.13063663384E+02 0.13691794982E+02 0.21524473944E+02 0.21002191236E+02 0.19561139873E+02
 0.17386119990E+02 0.14877529118E+02 0.12586369657E+02 0.11010708618E+02 0.10454027317E+02
 0.11010708618E+02 0.12586369657E+02 0.14877529118E+02 0.17386119990E+02 0.19561139873E+02
 0.21002191236E+02 0.21524473944E+02 0.21002191236E+02 0.19561139873E+02 0.17386119990E+02
 0.14877529118E+02 0.12586369657E+02 0.11010708618E+02 0.10454027317E+02 0.11010708618E+02
 0.12586369657E+02 0.14877529118E+02 0.17386119990E+02 0.19561139873E+02 0.21002191236E+02
 0.40214594376E+02 0.37680512179E+02 0.31678037954E+02 0.25493538596E+02 0.20832245447E+02
 0.16628126583E+02 0.13167424920E+02 0.11010708618E+02 0.10187419761E+02 0.10373616715E+02
 0.11151094947E+02 0.12146620752E+02 0.13063663384E+02 0.13691794982E+02 0.13913154198E+02
 0.13691794982E+02 0.13063663384E+02 0.12146620752E+02 0.11151094947E+02 0.10373616715E+02
 0.10187419761E+02 0.11010708618E+02 0.13167424920E+02 0.16628126583E+02 0.20832245447E+02
 0.25493538596E+02 0.31678037954E+02 0.37680512179E+02 0.96716623907E+02 0.88649731151E+02
 0.68654567989E+02 0.46387507534E+02 0.30306360879E+02 0.22051901152E+02 0.16628126583E+02
 0.12586369657E+02 0.10373616715E+02 0.95907500241E+01 0.95326913258E+01 0.96933932179E+01
 0.98745774392E+01 0.10018927093E+02 0.10076651854E+02 0.10018927093E+02 0.98745774392E+01
 0.96933932179E+01 0.95326913258E+01 0.95907500241E+01 0.10373616715E+02 0.12586369657E+02
 0.16628126583E+02 0.22051901152E+02 0.30306360879E+02 0.46387507534E+02 0.68654567989E+02
 0.88649731151E+02 0.21102798203E+03 0.19349290981E+03 0.14886816562E+03 0.96088290045E+02
 0.53767023307E+02 0.30306360879E+02 0.20832245447E+02 0.14877529118E+02 0.11151094947E+02
 0.95326913258E+01 0.89917087786E+01 0.87366071744E+01 0.85926578519E+01 0.85888068497E+01
 0.86188889140E+01 0.85888068497E+01 0.85926578519E+01 0.87366071744E+01 0.89917087786E+01
 0.95326913258E+01 0.11151094947E+02 0.14877529118E+02 0.20832245447E+02 0.30306360879E+02
 0.53767023307E+02 0.96088290045E+02 0.14886816562E+03 0.19349290981E+03 0.37950642867E+03
 0.34935201069E+03 0.27162401648E+03 0.17682504333E+03 0.96088290045E+02 0.46387507534E+02
 0.25493538596E+02 0.17386119990E+02 0.12146620752E+02 0.96933932179E+01 0.87366071744E+01
 0.81340958759E+01 0.77409086419E+01 0.76850935263E+01 0.77370977880E+01 0.76850935263E+01
 0.77409086419E+01 0.81340958759E+01 0.87366071744E+01 0.96933932179E+01 0.12146620752E+02
 0.17386119990E+02 0.25493538596E+02 0.46387507534E+02 0.96088290045E+02 0.17682504333E+03
 0.27162401648E+03 0.34935201069E+03 0.56795066006E+03 0.52437788861E+03 0.41141579931E+03
 0.27162401648E+03 0.14886816562E+03 0.68654567989E+02 0.31678037954E+02 0.19561139873E+02
 0.13063663384E+02 0.98745774392E+01 0.85926578519E+01 0.77409086419E+01 0.71925805373E+01
 0.71633122390E+01 0.72700857668E+01 0.71633122390E+01 0.71925805373E+01 0.77409086419E+01
 0.85926578519E+01 0.98745774392E+01 0.13063663384E+02 0.19561139873E+02 0.31678037954E+02
 0.68654567989E+02 0.14886816562E+03 0.27162401648E+03 0.41141579931E+03 0.52437788861E+03
 0.71903791078E+03 0.66494101329E+03 0.52437788861E+03 0.34935201069E+03 0.19349290981E+03
 0.88649731151E+02 0.37680512179E+02 0.21002191236E+02 0.13691794982E+02 0.10018927093E+02
 0.85888068497E+01 0.76850935263E+01 0.71633122390E+01 0.72653891818E+01 0.74559985558E+01
 0.72653891818E+01 0.71633122390E+01 0.76850935263E+01 0.85888068497E+01 0.10018927093E+02
 0.13691794982E+02 0.21002191236E+02 0.37680512179E+02 0.88649731151E+02 0.19349290981E+03
 0.34935201069E+03 0.52437788861E+03 0.66494101329E+03 0.61480818174E+03 0.56795066006E+03
 0.44637463442E+03 0.29559333535E+03 0.16253488876E+03 0.74701564959E+02 0.33463098686E+02
 0.20036548948E+02 0.13256874575E+02 0.99048367641E+01 0.85841776968E+01 0.77399238030E+01
 0.72315018679E+01 0.72700857668E+01 0.74135253333E+01 0.72700857668E+01 0.72315018679E+01
 0.77399238030E+01 0.85841776968E+01 0.99048367641E+01 0.13256874575E+02 0.20036548948E+02
 0.33463098686E+02 0.74701564959E+02 0.16253488876E+03 0.29559333535E+03 0.44637463442E+03
 0.56795066006E+03 0.56795066006E+03 0.52437788861E+03 0.41141579931E+03 0.27162401648E+03
 0.14886816562E+03 0.68654567989E+02 0.31678037954E+02 0.19561139873E+02 0.13063663384E+02
 0.98745774392E+01 0.85926578519E+01 0.77409086419E+01 0.71925805373E+01 0.71633122390E+01
 0.72700857668E+01 0.71633122390E+01 0.71925805373E+01 0.77409086419E+01 0.85926578519E+01
 0.98745774392E+01 0.13063663384E+02 0.19561139873E+02 0.31678037954E+02 0.68654567989E+02
 0.14886816562E+03 0.27162401648E+03 0.41141579931E+03 0.52437788861E+03 0.44637463442E+03