   4   4   0   0
  0.1200752E+02  0.3635000E-09  0.3635000E-09  0.3635000E-09  0.5000000E-15
  1.000000000000000E-004
  CAR 
 unknown system                          
     27.70405928     -3.78894632  301      7.10863223      1.00000000
     -3.789  0.0000E+00  0.0000E+00
     -3.684  0.0000E+00  0.0000E+00
     -3.579  0.0000E+00  0.0000E+00
     -3.474 -0.5370E-31 -0.5637E-32
     -3.369 -0.2651E-27 -0.2784E-28
     -3.264 -0.7512E-24 -0.7889E-25
     -3.159 -0.1221E-20 -0.1282E-21
     -3.054 -0.1136E-17 -0.1194E-18
     -2.949 -0.5881E-15 -0.6185E-16
     -2.844 -0.1776E-12 -0.1870E-13
     -2.739 -0.3054E-10 -0.3225E-11
     -2.634 -0.2975E-08 -0.3155E-09
     -2.529 -0.1630E-06 -0.1742E-07
     -2.424 -0.4962E-05 -0.5384E-06
     -2.319 -0.8217E-04 -0.9164E-05
     -2.214 -0.7047E-03 -0.8315E-04
     -2.109 -0.2711E-02 -0.3677E-03
     -2.004 -0.1286E-02 -0.5027E-03
     -1.899  0.2031E-01  0.1629E-02
     -1.794  0.5560E-01  0.7466E-02
     -1.689  0.5085E-01  0.1280E-01
     -1.584  0.4277E-02  0.1325E-01
     -1.479  0.3163E-01  0.1657E-01
     -1.374  0.2247E+00  0.4016E-01
     -1.270  0.3799E+00  0.8004E-01
     -1.165  0.2364E+00  0.1049E+00
     -1.060  0.4527E-01  0.1096E+00
     -0.955  0.2422E+00  0.1350E+00
     -0.850  0.6822E+00  0.2066E+00
     -0.745  0.6863E+00  0.2787E+00
     -0.640  0.2511E+00  0.3050E+00
     -0.535  0.9366E-01  0.3149E+00
     -0.430  0.3594E+00  0.3526E+00
     -0.325  0.4924E+00  0.4043E+00
     -0.220  0.2460E+00  0.4301E+00
     -0.115  0.6548E-01  0.4370E+00
     -0.010  0.2134E+00  0.4594E+00
      0.095  0.3426E+00  0.4953E+00
      0.200  0.1725E+00  0.5135E+00
      0.305  0.2030E+00  0.5348E+00
      0.410  0.9375E+00  0.6332E+00
      0.515  0.1492E+01  0.7898E+00
      0.620  0.9796E+00  0.8927E+00
      0.725  0.6275E+00  0.9585E+00
      0.830  0.1247E+01  0.1089E+01
      0.935  0.1426E+01  0.1239E+01
      1.040  0.6296E+00  0.1305E+01
      1.145  0.6086E-02  0.1306E+01
      1.250 -0.9752E-01  0.1296E+01
      1.355 -0.6841E-01  0.1288E+01
      1.460  0.6971E-01  0.1296E+01
      1.565  0.4613E+00  0.1344E+01
      1.670  0.1018E+01  0.1451E+01
      1.775  0.1692E+01  0.1629E+01
      1.880  0.1898E+01  0.1828E+01
      1.985  0.1209E+01  0.1955E+01
      2.090  0.1107E+01  0.2071E+01
      2.195  0.2071E+01  0.2288E+01
      2.300  0.2538E+01  0.2555E+01
      2.405  0.2076E+01  0.2773E+01
      2.510  0.1983E+01  0.2981E+01
      2.615  0.3464E+01  0.3345E+01
      2.720  0.5588E+01  0.3931E+01
      2.825  0.6517E+01  0.4615E+01
      2.930  0.6146E+01  0.5260E+01
      3.035  0.4876E+01  0.5772E+01
      3.140  0.3758E+01  0.6167E+01
      3.244  0.5397E+01  0.6733E+01
      3.349  0.8407E+01  0.7616E+01
      3.454  0.9834E+01  0.8648E+01
      3.559  0.1081E+02  0.9783E+01
      3.664  0.1105E+02  0.1094E+02
      3.769  0.9179E+01  0.1191E+02
      3.874  0.8525E+01  0.1280E+02
      3.979  0.1114E+02  0.1397E+02
      4.084  0.1332E+02  0.1537E+02
      4.189  0.1395E+02  0.1683E+02
      4.294  0.1427E+02  0.1833E+02
      4.399  0.1300E+02  0.1970E+02
      4.504  0.1221E+02  0.2098E+02
      4.609  0.1447E+02  0.2250E+02
      4.714  0.1738E+02  0.2432E+02
      4.819  0.1925E+02  0.2634E+02
      4.924  0.1997E+02  0.2844E+02
      5.029  0.1968E+02  0.3051E+02
      5.134  0.1814E+02  0.3241E+02
      5.239  0.1502E+02  0.3399E+02
      5.344  0.1620E+02  0.3569E+02
      5.449  0.2271E+02  0.3807E+02
      5.554  0.2163E+02  0.4034E+02
      5.659  0.1077E+02  0.4147E+02
      5.764  0.3248E+01  0.4181E+02
      5.869  0.2607E+01  0.4209E+02
      5.974  0.3330E+01  0.4244E+02
      6.079  0.2735E+01  0.4272E+02
      6.184  0.1316E+01  0.4286E+02
      6.289  0.2108E+00  0.4288E+02
      6.394 -0.1163E+00  0.4287E+02
      6.499 -0.9040E-01  0.4286E+02
      6.604 -0.1103E+00  0.4285E+02
      6.709 -0.1263E+00  0.4284E+02
      6.814  0.4719E+00  0.4289E+02
      6.919  0.2417E+01  0.4314E+02
      7.024  0.4511E+01  0.4361E+02
      7.129  0.4397E+01  0.4408E+02
      7.234  0.2706E+01  0.4436E+02
      7.339  0.1203E+01  0.4449E+02
      7.444  0.2054E+00  0.4451E+02
      7.549 -0.1582E+00  0.4449E+02
      7.654  0.2199E+00  0.4451E+02
      7.758  0.1147E+01  0.4463E+02
      7.863  0.1539E+01  0.4480E+02
      7.968  0.8137E+00  0.4488E+02
      8.073  0.2752E-01  0.4488E+02
      8.178 -0.1337E+00  0.4487E+02
      8.283  0.3399E+00  0.4491E+02
      8.388  0.1205E+01  0.4503E+02
      8.493  0.1385E+01  0.4518E+02
      8.598  0.9869E+00  0.4528E+02
      8.703  0.1551E+01  0.4544E+02
      8.808  0.2277E+01  0.4568E+02
      8.913  0.1566E+01  0.4585E+02
      9.018  0.4338E+00  0.4589E+02
      9.123 -0.4593E-01  0.4589E+02
      9.228 -0.1112E+00  0.4588E+02
      9.333  0.2409E+00  0.4590E+02
      9.438  0.1040E+01  0.4601E+02
      9.543  0.1439E+01  0.4616E+02
      9.648  0.1627E+01  0.4633E+02
      9.753  0.2671E+01  0.4661E+02
      9.858  0.3086E+01  0.4694E+02
      9.963  0.1941E+01  0.4714E+02
     10.068  0.7741E+00  0.4722E+02
     10.173  0.1837E+00  0.4724E+02
     10.278 -0.3729E-01  0.4724E+02
     10.383 -0.4846E-01  0.4723E+02
     10.488 -0.3701E-01  0.4723E+02
     10.593 -0.3624E-01  0.4723E+02
     10.698  0.1395E+00  0.4724E+02
     10.803  0.5759E+00  0.4730E+02
     10.908  0.7669E+00  0.4738E+02
     11.013  0.3841E+00  0.4742E+02
     11.118 -0.3514E-01  0.4742E+02
     11.223  0.7181E-01  0.4742E+02
     11.328  0.8407E+00  0.4751E+02
     11.433  0.1455E+01  0.4767E+02
     11.538  0.1154E+01  0.4779E+02
     11.643  0.1134E+01  0.4791E+02
     11.748  0.2036E+01  0.4812E+02
     11.853  0.2429E+01  0.4837E+02
     11.958  0.1573E+01  0.4854E+02
     12.063  0.5759E+00  0.4860E+02
     12.168  0.4236E+00  0.4864E+02
     12.272  0.9026E+00  0.4874E+02
     12.377  0.2100E+01  0.4896E+02
     12.482  0.3081E+01  0.4928E+02
     12.587  0.2076E+01  0.4950E+02
     12.692  0.6356E+00  0.4957E+02
     12.797  0.8396E+00  0.4966E+02
     12.902  0.1447E+01  0.4981E+02
     13.007  0.9994E+00  0.4991E+02
     13.112  0.4253E+00  0.4996E+02
     13.217  0.4285E+00  0.5000E+02
     13.322  0.3636E+00  0.5004E+02
     13.427  0.6901E-01  0.5005E+02
     13.532 -0.1560E+00  0.5003E+02
     13.637 -0.5929E-01  0.5003E+02
     13.742  0.1056E+01  0.5014E+02
     13.847  0.2795E+01  0.5043E+02
     13.952  0.2798E+01  0.5072E+02
     14.057  0.1053E+01  0.5083E+02
     14.162 -0.3469E-01  0.5083E+02
     14.267  0.6872E-01  0.5084E+02
     14.372  0.8248E+00  0.5092E+02
     14.477  0.1714E+01  0.5110E+02
     14.582  0.1805E+01  0.5129E+02
     14.687  0.1027E+01  0.5140E+02
     14.792  0.4352E+00  0.5145E+02
     14.897  0.8600E+00  0.5154E+02
     15.002  0.1636E+01  0.5171E+02
     15.107  0.1768E+01  0.5189E+02
     15.212  0.1705E+01  0.5207E+02
     15.317  0.1828E+01  0.5227E+02
     15.422  0.2271E+01  0.5250E+02
     15.527  0.3041E+01  0.5282E+02
     15.632  0.2583E+01  0.5309E+02
     15.737  0.8713E+00  0.5319E+02
     15.842 -0.1347E+00  0.5317E+02
     15.947  0.1018E+00  0.5318E+02
     16.052  0.1042E+01  0.5329E+02
     16.157  0.1516E+01  0.5345E+02
     16.262  0.8729E+00  0.5354E+02
     16.367  0.3387E+00  0.5358E+02
     16.472  0.6857E+00  0.5365E+02
     16.577  0.1167E+01  0.5377E+02
     16.682  0.1394E+01  0.5392E+02
     16.786  0.1686E+01  0.5410E+02
     16.891  0.1957E+01  0.5430E+02
     16.996  0.2175E+01  0.5453E+02
     17.101  0.2371E+01  0.5478E+02
     17.206  0.2053E+01  0.5499E+02
     17.311  0.1176E+01  0.5512E+02
     17.416  0.4152E+00  0.5516E+02
     17.521  0.2108E+00  0.5518E+02
     17.626  0.7665E+00  0.5526E+02
     17.731  0.1430E+01  0.5541E+02
     17.836  0.1069E+01  0.5553E+02
     17.941  0.6435E+00  0.5559E+02
     18.046  0.1588E+01  0.5576E+02
     18.151  0.2763E+01  0.5605E+02
     18.256  0.2655E+01  0.5633E+02
     18.361  0.1506E+01  0.5649E+02
     18.466  0.3440E+00  0.5652E+02
     18.571  0.3553E+00  0.5656E+02
     18.676  0.1731E+01  0.5674E+02
     18.781  0.2868E+01  0.5704E+02
     18.886  0.2258E+01  0.5728E+02
     18.991  0.1341E+01  0.5742E+02
     19.096  0.2565E+01  0.5769E+02
     19.201  0.4296E+01  0.5814E+02
     19.306  0.3280E+01  0.5849E+02
     19.411  0.8952E+00  0.5858E+02
     19.516 -0.1589E+00  0.5856E+02
     19.621 -0.1472E+00  0.5855E+02
     19.726 -0.3465E-01  0.5854E+02
     19.831 -0.1575E-01  0.5854E+02
     19.936 -0.6204E-01  0.5854E+02
     20.041 -0.1107E+00  0.5852E+02
     20.146  0.2387E+00  0.5855E+02
     20.251  0.1432E+01  0.5870E+02
     20.356  0.2692E+01  0.5898E+02
     20.461  0.2532E+01  0.5925E+02
     20.566  0.1142E+01  0.5937E+02
     20.671  0.9445E-01  0.5938E+02
     20.776 -0.1171E+00  0.5937E+02
     20.881 -0.4691E-01  0.5936E+02
     20.986 -0.7608E-02  0.5936E+02
     21.091 -0.6261E-03  0.5936E+02
     21.196 -0.2781E-04  0.5936E+02
     21.300 -0.6841E-06  0.5936E+02
     21.405 -0.9520E-08  0.5936E+02
     21.510 -0.9821E-08  0.5936E+02
     21.615 -0.6927E-06  0.5936E+02
     21.720 -0.2753E-04  0.5936E+02
     21.825 -0.6021E-03  0.5936E+02
     21.930 -0.7008E-02  0.5936E+02
     22.035 -0.3994E-01  0.5936E+02
     22.140 -0.7822E-01  0.5935E+02
     22.245  0.1732E+00  0.5936E+02
     22.350  0.9962E+00  0.5947E+02
     22.455  0.1564E+01  0.5963E+02
     22.560  0.1000E+01  0.5974E+02
     22.665  0.1756E+00  0.5976E+02
     22.770 -0.7810E-01  0.5975E+02
     22.875 -0.4016E-01  0.5974E+02
     22.980 -0.7072E-02  0.5974E+02
     23.085 -0.6094E-03  0.5974E+02
     23.190 -0.2794E-04  0.5974E+02
     23.295 -0.7047E-06  0.5974E+02
     23.400 -0.9941E-08  0.5974E+02
     23.505 -0.7915E-10  0.5974E+02
     23.610 -0.3574E-12  0.5974E+02
     23.715 -0.8122E-15  0.5974E+02
     23.820  0.0000E+00  0.5974E+02
     23.925  0.0000E+00  0.5974E+02
     24.030 -0.2130E-29  0.5974E+02
     24.135 -0.9927E-26  0.5974E+02
     24.240 -0.2655E-22  0.5974E+02
     24.345 -0.4072E-19  0.5974E+02
     24.450 -0.3577E-16  0.5974E+02
     24.555 -0.1743E-13  0.5974E+02
     24.660 -0.4974E-11  0.5974E+02
     24.765 -0.8067E-09  0.5974E+02
     24.870 -0.7405E-07  0.5974E+02
     24.975 -0.3820E-05  0.5974E+02
     25.080 -0.1093E-03  0.5974E+02
     25.185 -0.1696E-02  0.5974E+02
     25.290 -0.1352E-01  0.5974E+02
     25.395 -0.4685E-01  0.5974E+02
     25.500 -0.4427E-02  0.5974E+02
     25.605  0.3865E+00  0.5978E+02
     25.710  0.9555E+00  0.5988E+02
     25.814  0.9129E+00  0.5997E+02
     25.919  0.3268E+00  0.6001E+02
     26.024 -0.2049E-01  0.6001E+02
     26.129 -0.4337E-01  0.6000E+02
     26.234 -0.1128E-01  0.6000E+02
     26.339 -0.1315E-02  0.6000E+02
     26.444 -0.7940E-04  0.6000E+02
     26.549 -0.2607E-05  0.6000E+02
     26.654 -0.4759E-07  0.6000E+02
     26.759 -0.4886E-09  0.6000E+02
     26.864 -0.2841E-11  0.6000E+02
     26.969 -0.9205E-14  0.6000E+02
     27.074  0.0000E+00  0.6000E+02
     27.179  0.0000E+00  0.6000E+02
     27.284  0.0000E+00  0.6000E+02
     27.389  0.0000E+00  0.6000E+02
     27.494  0.0000E+00  0.6000E+02
     27.599  0.0000E+00  0.6000E+02
     27.704  0.0000E+00  0.6000E+02
