       N       E                     dE             d eps       ncg     rms          rms(c)
DAV:   1     0.229683549471E+03    0.22968E+03   -0.11779E+04   600   0.106E+03
DAV:   2    -0.453216123923E+01   -0.23422E+03   -0.22308E+03   600   0.268E+02
DAV:   3    -0.156414663349E+02   -0.11109E+02   -0.10903E+02   666   0.780E+01
DAV:   4    -0.157305252965E+02   -0.89059E-01   -0.89027E-01   654   0.809E+00
DAV:   5    -0.157310777089E+02   -0.55241E-03   -0.55241E-03   660   0.540E-01    0.181E+01
DAV:   6    -0.125322847231E+02    0.31988E+01   -0.41423E+01   630   0.921E+01    0.904E+00
DAV:   7    -0.106231716199E+02    0.19091E+01   -0.62559E+00   660   0.345E+01    0.361E-01
DAV:   8    -0.106165272526E+02    0.66444E-02   -0.64436E-02   730   0.250E+00    0.527E-01
DAV:   9    -0.106120596827E+02    0.44676E-02   -0.46794E-03   716   0.963E-01    0.134E-01
DAV:  10    -0.106117882720E+02    0.27141E-03   -0.87506E-04   624   0.395E-01    0.349E-02
DAV:  11    -0.106117716790E+02    0.16593E-04   -0.28398E-05   744   0.587E-02    0.137E-02
DAV:  12    -0.106117631342E+02    0.85448E-05   -0.40652E-06   590   0.257E-02    0.648E-04
DAV:  13    -0.106117628352E+02    0.29895E-06   -0.45570E-07   384   0.445E-03
   1 F= -.10611763E+02 E0= -.10607284E+02  d E =-.134370E-01
